============================== echo of input deck ==============================
echo
memory 1000 mb
geometry noautosym noautoz
O -0.82054445 0.61636011 -1.6312343
H -0.26682713 1.17302621 -1.05309865
H -0.36885969 -0.24447946 -1.58195952
O 0.57630762 -1.69154092 -0.42866929
H 0.43417462 -2.64420081 -0.48595869
H 0.08911917 -1.3894609 0.38589939
O 2.81159896 -0.10395953 -0.18689424
H 3.46294039 -0.4517338 0.43482057
H 2.1584952 -0.82915775 -0.30211113
O -2.88801599 -0.0663369 0.05761427
H -2.29024563 0.26724676 -0.65069518
H -3.66545029 0.50362404 0.03495814
end
basis spherical
 * library cc-pvdz
end
task scf gradient
================================================================================

 Output coordinates in angstroms (scale by  1.889725989 to convert to a.u.)

  No.       Tag          Charge          X              Y              Z
 ---- ---------------- ---------- -------------- -------------- --------------
    1 O                    8.0000    -0.74524734     0.95583395    -1.11294396
    2 H                    1.0000    -0.19153002     1.51250005    -0.53480831
    3 H                    1.0000    -0.29356258     0.09499438    -1.06366918
    4 O                    8.0000     0.65160473    -1.35206708     0.08962105
    5 H                    1.0000     0.50947173    -2.30472697     0.03233165
    6 H                    1.0000     0.16441628    -1.04998706     0.90418973
    7 O                    8.0000     2.88689607     0.23551431     0.33139610
    8 H                    1.0000     3.53823750    -0.11225996     0.95311091
    9 H                    1.0000     2.23379231    -0.48968391     0.21617921
   10 O                    8.0000    -2.81271888     0.27313694     0.57590461
   11 H                    1.0000    -2.21494852     0.60672060    -0.13240484
   12 H                    1.0000    -3.59015318     0.84309788     0.55324848

         Total SCF energy =   -304.126823896347

 Vector    5  Occ=2.000000D+00  E=-1.388671D+00

 Vector    6  Occ=2.000000D+00  E=-1.345920D+00

 Vector    7  Occ=2.000000D+00  E=-1.307931D+00

 Vector    8  Occ=2.000000D+00  E=-1.296424D+00

 Vector    9  Occ=2.000000D+00  E=-7.522586D-01

 Vector   10  Occ=2.000000D+00  E=-7.012798D-01

 Vector   11  Occ=2.000000D+00  E=-6.893596D-01

 Vector   12  Occ=2.000000D+00  E=-6.743072D-01

 Vector   13  Occ=2.000000D+00  E=-6.176630D-01

 Vector   14  Occ=2.000000D+00  E=-5.888809D-01

 Vector   15  Occ=2.000000D+00  E=-5.600314D-01

 Vector   16  Occ=2.000000D+00  E=-5.395876D-01

 Vector   17  Occ=2.000000D+00  E=-5.274321D-01

 Vector   18  Occ=2.000000D+00  E=-4.935737D-01

 Vector   19  Occ=2.000000D+00  E=-4.717354D-01

 Vector   20  Occ=2.000000D+00  E=-4.619853D-01

 Vector   21  Occ=0.000000D+00  E= 1.394053D-01

 Vector   22  Occ=0.000000D+00  E= 2.012301D-01

 Vector   23  Occ=0.000000D+00  E= 2.178364D-01

 Vector   24  Occ=0.000000D+00  E= 2.337118D-01

 Vector   25  Occ=0.000000D+00  E= 2.389914D-01

 Vector   26  Occ=0.000000D+00  E= 3.124545D-01

 Vector   27  Occ=0.000000D+00  E= 3.687160D-01

 Vector   28  Occ=0.000000D+00  E= 4.104427D-01

 Vector   29  Occ=0.000000D+00  E= 7.052781D-01

 Vector   30  Occ=0.000000D+00  E= 7.520529D-01

       Multipole analysis of the density wrt the origin
       ------------------------------------------------

     L   x y z        total         open         nuclear
     -   - - -        -----         ----         -------
     0   0 0 0     -0.000000      0.000000     40.000000

     1   1 0 0      0.209950      0.000000     -0.000000
     1   0 1 0     -0.982670      0.000000      0.000000
     1   0 0 1      0.682879      0.000000      0.000000

     2   2 0 0    -20.997795      0.000000    619.643638
     2   1 1 0     -5.748571      0.000000    -74.920033
     2   1 0 1      3.274845      0.000000     16.210457
     2   0 2 0    -13.182268      0.000000    117.903808
     2   0 1 1      0.234878      0.000000    -33.416237

 Total times  cpu:        3.6s     wall:        3.6s
