============================== echo of input deck ==============================
echo
memory 1000 mb
geometry noautosym noautoz
O 0.57630762 -1.69154092 -0.42866929
H 0.43417462 -2.64420081 -0.48595869
H 0.08911917 -1.3894609 0.38589939
O -2.88801599 -0.0663369 0.05761427
H -2.29024563 0.26724676 -0.65069518
H -3.66545029 0.50362404 0.03495814
end
basis spherical
 * library cc-pvdz
end
task scf gradient
================================================================================

 Output coordinates in angstroms (scale by  1.889725989 to convert to a.u.)

  No.       Tag          Charge          X              Y              Z
 ---- ---------------- ---------- -------------- -------------- --------------
    1 O                    8.0000     1.77261107    -0.82525025    -0.24445747
    2 H                    1.0000     1.63047807    -1.77791014    -0.30174687
    3 H                    1.0000     1.28542262    -0.52317023     0.57011122
    4 O                    8.0000    -1.69171254     0.79995377     0.24182610
    5 H                    1.0000    -1.09394218     1.13353743    -0.46648336
    6 H                    1.0000    -2.46914684     1.36991471     0.21916997

         Total SCF energy =   -152.052335900328

 Vector    2  Occ=2.000000D+00  E=-2.054917D+01

 Vector    3  Occ=2.000000D+00  E=-1.330115D+00

 Vector    4  Occ=2.000000D+00  E=-1.319777D+00

 Vector    5  Occ=2.000000D+00  E=-6.955800D-01

 Vector    6  Occ=2.000000D+00  E=-6.850353D-01

 Vector    7  Occ=2.000000D+00  E=-5.646739D-01

 Vector    8  Occ=2.000000D+00  E=-5.552260D-01

 Vector    9  Occ=2.000000D+00  E=-4.947023D-01

 Vector   10  Occ=2.000000D+00  E=-4.866463D-01

 Vector   11  Occ=0.000000D+00  E= 1.658430D-01

 Vector   12  Occ=0.000000D+00  E= 2.044560D-01

 Vector   13  Occ=0.000000D+00  E= 2.553794D-01

 Vector   14  Occ=0.000000D+00  E= 2.728367D-01

 Vector   15  Occ=0.000000D+00  E= 7.584958D-01

 Vector   16  Occ=0.000000D+00  E= 8.070192D-01

 Vector   17  Occ=0.000000D+00  E= 8.322679D-01

 Vector   18  Occ=0.000000D+00  E= 8.464532D-01

 Vector   19  Occ=0.000000D+00  E= 1.161372D+00

 Vector   20  Occ=0.000000D+00  E= 1.168537D+00

       Multipole analysis of the density wrt the origin
       ------------------------------------------------

     L   x y z        total         open         nuclear
     -   - - -        -----         ----         -------
     0   0 0 0     -0.000000      0.000000     20.000000

     1   1 0 0     -0.566337      0.000000      0.000000
     1   0 1 0      0.172741      0.000000     -0.000000
     1   0 0 1      0.016049      0.000000      0.000000

     2   2 0 0    -10.353700      0.000000    212.965763
     2   1 1 0     -3.553580      0.000000   -109.713808
     2   1 0 1      2.063394      0.000000    -23.317053
     2   0 2 0     -4.570740      0.000000     61.293594
     2   0 1 1     -0.929048      0.000000     11.324515

 Total times  cpu:        0.5s     wall:        0.6s
