============================== echo of input deck ==============================
echo
memory 1000 mb
geometry noautosym noautoz
O -0.82054445 0.61636011 -1.6312343
H -0.26682713 1.17302621 -1.05309865
H -0.36885969 -0.24447946 -1.58195952
O 0.57630762 -1.69154092 -0.42866929
H 0.43417462 -2.64420081 -0.48595869
H 0.08911917 -1.3894609 0.38589939
O -2.88801599 -0.0663369 0.05761427
H -2.29024563 0.26724676 -0.65069518
H -3.66545029 0.50362404 0.03495814
end
basis spherical
 * library cc-pvdz
end
task scf gradient
================================================================================

 Output coordinates in angstroms (scale by  1.889725989 to convert to a.u.)

  No.       Tag          Charge          X              Y              Z
 ---- ---------------- ---------- -------------- -------------- --------------
    1 O                    8.0000     0.21699260     0.99857297    -0.98559533
    2 H                    1.0000     0.77070992     1.55523907    -0.40745968
    3 H                    1.0000     0.66867736     0.13773340    -0.93632055
    4 O                    8.0000     1.61384467    -1.30932806     0.21696968
    5 H                    1.0000     1.47171167    -2.26198795     0.15968028
    6 H                    1.0000     1.12665622    -1.00724804     1.03153836
    7 O                    8.0000    -1.85047894     0.31587596     0.70325324
    8 H                    1.0000    -1.25270858     0.64945962    -0.00505621
    9 H                    1.0000    -2.62791324     0.88583690     0.68059711

         Total SCF energy =   -228.095285606615

 Vector    4  Occ=2.000000D+00  E=-1.355390D+00

 Vector    5  Occ=2.000000D+00  E=-1.344222D+00

 Vector    6  Occ=2.000000D+00  E=-1.294442D+00

 Vector    7  Occ=2.000000D+00  E=-7.200051D-01

 Vector    8  Occ=2.000000D+00  E=-6.995674D-01

 Vector    9  Occ=2.000000D+00  E=-6.725495D-01

 Vector   10  Occ=2.000000D+00  E=-5.990510D-01

 Vector   11  Occ=2.000000D+00  E=-5.785391D-01

 Vector   12  Occ=2.000000D+00  E=-5.391441D-01

 Vector   13  Occ=2.000000D+00  E=-5.168405D-01

 Vector   14  Occ=2.000000D+00  E=-4.930598D-01

 Vector   15  Occ=2.000000D+00  E=-4.599174D-01

 Vector   16  Occ=0.000000D+00  E= 1.558484D-01

 Vector   17  Occ=0.000000D+00  E= 2.067534D-01

 Vector   18  Occ=0.000000D+00  E= 2.343596D-01

 Vector   19  Occ=0.000000D+00  E= 2.490702D-01

 Vector   20  Occ=0.000000D+00  E= 3.184349D-01

 Vector   21  Occ=0.000000D+00  E= 3.998433D-01

 Vector   22  Occ=0.000000D+00  E= 7.232177D-01

 Vector   23  Occ=0.000000D+00  E= 7.715756D-01

 Vector   24  Occ=0.000000D+00  E= 8.017772D-01

 Vector   25  Occ=0.000000D+00  E= 8.266551D-01

       Multipole analysis of the density wrt the origin
       ------------------------------------------------

     L   x y z        total         open         nuclear
     -   - - -        -----         ----         -------
     0   0 0 0     -0.000000      0.000000     30.000000

     1   1 0 0      0.411473      0.000000     -0.000000
     1   0 1 0     -0.145922      0.000000      0.000000
     1   0 0 1      0.356080      0.000000     -0.000000

     2   2 0 0    -14.466979      0.000000    219.829152
     2   1 1 0     -2.100848      0.000000    -93.425088
     2   1 0 1      1.458435      0.000000    -38.016437
     2   0 2 0     -8.733552      0.000000    115.222199
     2   0 1 1      0.838174      0.000000    -35.468939

 Total times  cpu:        1.8s     wall:        1.9s
