============================== echo of input deck ==============================
echo
memory 1000 mb
geometry noautosym noautoz
O 0.87715956 1.70409266 0.47858616
H 1.70199937 1.19722607 0.29220265
H 1.16181787 2.60891668 0.65546661
O 0.57630762 -1.69154092 -0.42866929
H 0.43417462 -2.64420081 -0.48595869
H 0.08911917 -1.3894609 0.38589939
end
basis spherical
 * library cc-pvdz
end
task scf gradient
================================================================================

 Output coordinates in angstroms (scale by  1.889725989 to convert to a.u.)

  No.       Tag          Charge          X              Y              Z
 ---- ---------------- ---------- -------------- -------------- --------------
    1 O                    8.0000     0.12641714     1.71044791     0.41623891
    2 H                    1.0000     0.95125695     1.20358132     0.22985540
    3 H                    1.0000     0.41107545     2.61527193     0.59311936
    4 O                    8.0000    -0.17443480    -1.68518567    -0.49101654
    5 H                    1.0000    -0.31656780    -2.63784556    -0.54830594
    6 H                    1.0000    -0.66162325    -1.38310565     0.32355214

         Total SCF energy =   -152.051644629582

 Vector    2  Occ=2.000000D+00  E=-2.054782D+01

 Vector    3  Occ=2.000000D+00  E=-1.321795D+00

 Vector    4  Occ=2.000000D+00  E=-1.319405D+00

 Vector    5  Occ=2.000000D+00  E=-6.887110D-01

 Vector    6  Occ=2.000000D+00  E=-6.822819D-01

 Vector    7  Occ=2.000000D+00  E=-5.563374D-01

 Vector    8  Occ=2.000000D+00  E=-5.547766D-01

 Vector    9  Occ=2.000000D+00  E=-4.868683D-01

 Vector   10  Occ=2.000000D+00  E=-4.860912D-01

 Vector   11  Occ=0.000000D+00  E= 1.724339D-01

 Vector   12  Occ=0.000000D+00  E= 2.060701D-01

 Vector   13  Occ=0.000000D+00  E= 2.638124D-01

 Vector   14  Occ=0.000000D+00  E= 2.695539D-01

 Vector   15  Occ=0.000000D+00  E= 7.507032D-01

 Vector   16  Occ=0.000000D+00  E= 8.262415D-01

 Vector   17  Occ=0.000000D+00  E= 8.385732D-01

 Vector   18  Occ=0.000000D+00  E= 8.440122D-01

 Vector   19  Occ=0.000000D+00  E= 1.152912D+00

 Vector   20  Occ=0.000000D+00  E= 1.199606D+00

       Multipole analysis of the density wrt the origin
       ------------------------------------------------

     L   x y z        total         open         nuclear
     -   - - -        -----         ----         -------
     0   0 0 0     -0.000000      0.000000     20.000000

     1   1 0 0      0.328100      0.000000     -0.000000
     1   0 1 0     -0.174354      0.000000      0.000000
     1   0 0 1      0.507066      0.000000      0.000000

     2   2 0 0     -8.063906      0.000000      7.081791
     2   1 1 0      3.728245      0.000000     28.752855
     2   1 0 1     -0.054215      0.000000      5.457070
     2   0 2 0     -2.064062      0.000000    225.988834
     2   0 1 1     -0.004456      0.000000     54.072805

 Total times  cpu:        0.8s     wall:        0.8s
