============================== echo of input deck ==============================
echo
memory 1000 mb
geometry noautosym noautoz
O 0.57630762 -1.69154092 -0.42866929
H 0.43417462 -2.64420081 -0.48595869
H 0.08911917 -1.3894609 0.38589939
O 2.81159896 -0.10395953 -0.18689424
H 3.46294039 -0.4517338 0.43482057
H 2.1584952 -0.82915775 -0.30211113
O -2.88801599 -0.0663369 0.05761427
H -2.29024563 0.26724676 -0.65069518
H -3.66545029 0.50362404 0.03495814
end
basis spherical
 * library cc-pvdz
end
task scf gradient
================================================================================

 Output coordinates in angstroms (scale by  1.889725989 to convert to a.u.)

  No.       Tag          Charge          X              Y              Z
 ---- ---------------- ---------- -------------- -------------- --------------
    1 O                    8.0000     0.43670235    -1.04359488    -0.26044659
    2 H                    1.0000     0.29456935    -1.99625477    -0.31773599
    3 H                    1.0000    -0.05048610    -0.74151486     0.55412209
    4 O                    8.0000     2.67199369     0.54398651    -0.01867154
    5 H                    1.0000     3.32333512     0.19621224     0.60304327
    6 H                    1.0000     2.01888993    -0.18121171    -0.13388843
    7 O                    8.0000    -3.02762126     0.58160914     0.22583697
    8 H                    1.0000    -2.42985090     0.91519280    -0.48247248
    9 H                    1.0000    -3.80505556     1.15157008     0.20318084

         Total SCF energy =   -228.084801559706

 Vector    4  Occ=2.000000D+00  E=-1.357708D+00

 Vector    5  Occ=2.000000D+00  E=-1.332618D+00

 Vector    6  Occ=2.000000D+00  E=-1.290129D+00

 Vector    7  Occ=2.000000D+00  E=-7.217052D-01

 Vector    8  Occ=2.000000D+00  E=-6.978078D-01

 Vector    9  Occ=2.000000D+00  E=-6.681689D-01

 Vector   10  Occ=2.000000D+00  E=-5.865374D-01

 Vector   11  Occ=2.000000D+00  E=-5.673458D-01

 Vector   12  Occ=2.000000D+00  E=-5.397812D-01

 Vector   13  Occ=2.000000D+00  E=-5.054362D-01

 Vector   14  Occ=2.000000D+00  E=-4.972627D-01

 Vector   15  Occ=2.000000D+00  E=-4.542168D-01

 Vector   16  Occ=0.000000D+00  E= 1.527271D-01

 Vector   17  Occ=0.000000D+00  E= 1.903630D-01

 Vector   18  Occ=0.000000D+00  E= 2.321234D-01

 Vector   19  Occ=0.000000D+00  E= 2.450907D-01

 Vector   20  Occ=0.000000D+00  E= 2.651021D-01

 Vector   21  Occ=0.000000D+00  E= 3.892742D-01

 Vector   22  Occ=0.000000D+00  E= 7.376615D-01

 Vector   23  Occ=0.000000D+00  E= 7.824853D-01

 Vector   24  Occ=0.000000D+00  E= 8.025184D-01

 Vector   25  Occ=0.000000D+00  E= 8.278839D-01

       Multipole analysis of the density wrt the origin
       ------------------------------------------------

     L   x y z        total         open         nuclear
     -   - - -        -----         ----         -------
     0   0 0 0     -0.000000      0.000000     30.000000

     1   1 0 0     -0.803193      0.000000     -0.000000
     1   0 1 0     -0.700195      0.000000     -0.000000
     1   0 0 1      0.337373      0.000000     -0.000000

     2   2 0 0    -12.631478      0.000000    598.390440
     2   1 1 0     -7.430512      0.000000    -46.333735
     2   1 0 1      4.553267      0.000000    -17.025240
     2   0 2 0    -10.228602      0.000000     73.407341
     2   0 1 1     -0.757846      0.000000     11.792870

 Total times  cpu:        1.5s     wall:        1.6s
