============================== echo of input deck ==============================
echo
memory 1000 mb
geometry noautosym noautoz
O 0.87715956 1.70409266 0.47858616
H 1.70199937 1.19722607 0.29220265
H 1.16181787 2.60891668 0.65546661
O -0.82054445 0.61636011 -1.6312343
H -0.26682713 1.17302621 -1.05309865
H -0.36885969 -0.24447946 -1.58195952
O -0.64071556 -0.48854013 1.6410419
H -0.19915392 0.37247798 1.5285638
H -1.54433112 -0.32408724 1.298356
O -2.88801599 -0.0663369 0.05761427
H -2.29024563 0.26724676 -0.65069518
H -3.66545029 0.50362404 0.03495814
end
basis spherical
 * library cc-pvdz
end
task scf gradient
================================================================================

 Output coordinates in angstroms (scale by  1.889725989 to convert to a.u.)

  No.       Tag          Charge          X              Y              Z
 ---- ---------------- ---------- -------------- -------------- --------------
    1 O                    8.0000     1.70835911     1.21212874     0.35628971
    2 H                    1.0000     2.53319892     0.70526215     0.16990620
    3 H                    1.0000     1.99301742     2.11695276     0.53317016
    4 O                    8.0000     0.01065510     0.12439619    -1.75353075
    5 H                    1.0000     0.56437242     0.68106229    -1.17539510
    6 H                    1.0000     0.46233986    -0.73644338    -1.70425597
    7 O                    8.0000     0.19048399    -0.98050405     1.51874545
    8 H                    1.0000     0.63204563    -0.11948594     1.40626735
    9 H                    1.0000    -0.71313157    -0.81605116     1.17605955
   10 O                    8.0000    -2.05681644    -0.55830082    -0.06468218
   11 H                    1.0000    -1.45904608    -0.22471716    -0.77299163
   12 H                    1.0000    -2.83425074     0.01166012    -0.08733831

         Total SCF energy =   -304.132982295809

 Vector    5  Occ=2.000000D+00  E=-1.390419D+00

 Vector    6  Occ=2.000000D+00  E=-1.349525D+00

 Vector    7  Occ=2.000000D+00  E=-1.316089D+00

 Vector    8  Occ=2.000000D+00  E=-1.272110D+00

 Vector    9  Occ=2.000000D+00  E=-7.531153D-01

 Vector   10  Occ=2.000000D+00  E=-7.076861D-01

 Vector   11  Occ=2.000000D+00  E=-6.916650D-01

 Vector   12  Occ=2.000000D+00  E=-6.540540D-01

 Vector   13  Occ=2.000000D+00  E=-6.250102D-01

 Vector   14  Occ=2.000000D+00  E=-5.848253D-01

 Vector   15  Occ=2.000000D+00  E=-5.625689D-01

 Vector   16  Occ=2.000000D+00  E=-5.417939D-01

 Vector   17  Occ=2.000000D+00  E=-5.156705D-01

 Vector   18  Occ=2.000000D+00  E=-4.977654D-01

 Vector   19  Occ=2.000000D+00  E=-4.713675D-01

 Vector   20  Occ=2.000000D+00  E=-4.371381D-01

 Vector   21  Occ=0.000000D+00  E= 1.373669D-01

 Vector   22  Occ=0.000000D+00  E= 1.982926D-01

 Vector   23  Occ=0.000000D+00  E= 2.146166D-01

 Vector   24  Occ=0.000000D+00  E= 2.368466D-01

 Vector   25  Occ=0.000000D+00  E= 3.155448D-01

 Vector   26  Occ=0.000000D+00  E= 3.233318D-01

 Vector   27  Occ=0.000000D+00  E= 4.007667D-01

 Vector   28  Occ=0.000000D+00  E= 4.212099D-01

 Vector   29  Occ=0.000000D+00  E= 7.032132D-01

 Vector   30  Occ=0.000000D+00  E= 7.587195D-01

       Multipole analysis of the density wrt the origin
       ------------------------------------------------

     L   x y z        total         open         nuclear
     -   - - -        -----         ----         -------
     0   0 0 0     -0.000000      0.000000     40.000000

     1   1 0 0      1.240239      0.000000      0.000000
     1   0 1 0      1.661485      0.000000     -0.000000
     1   0 0 1     -0.585140      0.000000      0.000000

     2   2 0 0     -9.056591      0.000000    283.808121
     2   1 1 0      1.412170      0.000000    111.131035
     2   1 0 1     -0.679878      0.000000     34.160119
     2   0 2 0    -17.580909      0.000000    102.769790
     2   0 1 1      4.878203      0.000000    -32.733349

 Total times  cpu:        5.4s     wall:        5.5s
