============================== echo of input deck ==============================
echo
memory 1000 mb
geometry noautosym noautoz
O 0.87715956 1.70409266 0.47858616
H 1.70199937 1.19722607 0.29220265
H 1.16181787 2.60891668 0.65546661
O -0.82054445 0.61636011 -1.6312343
H -0.26682713 1.17302621 -1.05309865
H -0.36885969 -0.24447946 -1.58195952
end
basis spherical
 * library cc-pvdz
end
task scf gradient
================================================================================

 Output coordinates in angstroms (scale by  1.889725989 to convert to a.u.)

  No.       Tag          Charge          X              Y              Z
 ---- ---------------- ---------- -------------- -------------- --------------
    1 O                    8.0000     0.74310700     0.53917708     1.02401486
    2 H                    1.0000     1.56794681     0.03231049     0.83763135
    3 H                    1.0000     1.02776531     1.44400110     1.20089531
    4 O                    8.0000    -0.95459702    -0.54855547    -1.08580560
    5 H                    1.0000    -0.40087970     0.00811063    -0.50766995
    6 H                    1.0000    -0.50291226    -1.40939504    -1.03653082

         Total SCF energy =   -152.057427644785

 Vector    2  Occ=2.000000D+00  E=-2.052092D+01

 Vector    3  Occ=2.000000D+00  E=-1.362115D+00

 Vector    4  Occ=2.000000D+00  E=-1.299312D+00

 Vector    5  Occ=2.000000D+00  E=-7.259312D-01

 Vector    6  Occ=2.000000D+00  E=-6.628414D-01

 Vector    7  Occ=2.000000D+00  E=-5.961004D-01

 Vector    8  Occ=2.000000D+00  E=-5.453801D-01

 Vector    9  Occ=2.000000D+00  E=-5.151587D-01

 Vector   10  Occ=2.000000D+00  E=-4.624795D-01

 Vector   11  Occ=0.000000D+00  E= 1.539788D-01

 Vector   12  Occ=0.000000D+00  E= 2.211741D-01

 Vector   13  Occ=0.000000D+00  E= 2.448705D-01

 Vector   14  Occ=0.000000D+00  E= 3.553406D-01

 Vector   15  Occ=0.000000D+00  E= 7.332476D-01

 Vector   16  Occ=0.000000D+00  E= 8.029125D-01

 Vector   17  Occ=0.000000D+00  E= 8.162188D-01

 Vector   18  Occ=0.000000D+00  E= 8.786624D-01

 Vector   19  Occ=0.000000D+00  E= 1.127432D+00

 Vector   20  Occ=0.000000D+00  E= 1.169094D+00

       Multipole analysis of the density wrt the origin
       ------------------------------------------------

     L   x y z        total         open         nuclear
     -   - - -        -----         ----         -------
     0   0 0 0     -0.000000      0.000000     20.000000

     1   1 0 0      1.551672      0.000000      0.000000
     1   0 1 0      0.186295      0.000000     -0.000000
     1   0 0 1      0.571538      0.000000      0.000000

     2   2 0 0     -8.623147      0.000000     55.837489
     2   1 1 0      0.360537      0.000000     34.406603
     2   1 0 1     -0.329200      0.000000     63.036690
     2   0 2 0     -5.614069      0.000000     31.445519
     2   0 1 1      1.477017      0.000000     44.280918

 Total times  cpu:        0.7s     wall:        0.7s
