============================== echo of input deck ==============================
echo
memory 1000 mb
geometry noautosym noautoz
O -2.88801599 -0.0663369 0.05761427
H -2.29024563 0.26724676 -0.65069518
H -3.66545029 0.50362404 0.03495814
end
basis spherical
 * library cc-pvdz
end
task scf gradient
================================================================================

 Output coordinates in angstroms (scale by  1.889725989 to convert to a.u.)

  No.       Tag          Charge          X              Y              Z
 ---- ---------------- ---------- -------------- -------------- --------------
    1 O                    8.0000     0.01796639    -0.09035446     0.07309656
    2 H                    1.0000     0.61573675     0.24322920    -0.63521289
    3 H                    1.0000    -0.75946791     0.47960648     0.05044043

         Total SCF energy =    -76.025086948811

 Vector    2  Occ=2.000000D+00  E=-1.327154D+00

 Vector    3  Occ=2.000000D+00  E=-6.924526D-01

 Vector    4  Occ=2.000000D+00  E=-5.607151D-01

 Vector    5  Occ=2.000000D+00  E=-4.914695D-01

 Vector    6  Occ=0.000000D+00  E= 1.827171D-01

 Vector    7  Occ=0.000000D+00  E= 2.535305D-01

 Vector    8  Occ=0.000000D+00  E= 7.800983D-01

 Vector    9  Occ=0.000000D+00  E= 8.341108D-01

 Vector   10  Occ=0.000000D+00  E= 1.163715D+00

 Vector   11  Occ=0.000000D+00  E= 1.200249D+00

 Vector   12  Occ=0.000000D+00  E= 1.253265D+00

 Vector   13  Occ=0.000000D+00  E= 1.459148D+00

 Vector   14  Occ=0.000000D+00  E= 1.467997D+00

 Vector   15  Occ=0.000000D+00  E= 1.678463D+00

       Multipole analysis of the density wrt the origin
       ------------------------------------------------

     L   x y z        total         open         nuclear
     -   - - -        -----         ----         -------
     0   0 0 0     -0.000000      0.000000     10.000000

     1   1 0 0     -0.128120      0.000000      0.000000
     1   0 1 0      0.621413      0.000000     -0.000000
     1   0 0 1     -0.499713      0.000000      0.000000

     2   2 0 0     -3.464161      0.000000      3.422885
     2   1 1 0     -0.411359      0.000000     -0.812300
     2   1 0 1     -0.798403      0.000000     -1.496010
     2   0 2 0     -4.701332      0.000000      1.265922
     2   0 1 1     -0.253120      0.000000     -0.654032

 Total times  cpu:        0.4s     wall:        0.4s
