============================== echo of input deck ==============================
echo
memory 1000 mb
geometry noautosym noautoz
O 0.87715956 1.70409266 0.47858616
H 1.70199937 1.19722607 0.29220265
H 1.16181787 2.60891668 0.65546661
O -0.82054445 0.61636011 -1.6312343
H -0.26682713 1.17302621 -1.05309865
H -0.36885969 -0.24447946 -1.58195952
O -0.64071556 -0.48854013 1.6410419
H -0.19915392 0.37247798 1.5285638
H -1.54433112 -0.32408724 1.298356
O 0.57630762 -1.69154092 -0.42866929
H 0.43417462 -2.64420081 -0.48595869
H 0.08911917 -1.3894609 0.38589939
end
basis spherical
 * library cc-pvdz
end
task scf gradient
================================================================================

 Output coordinates in angstroms (scale by  1.889725989 to convert to a.u.)

  No.       Tag          Charge          X              Y              Z
 ---- ---------------- ---------- -------------- -------------- --------------
    1 O                    8.0000     0.85351965     1.65728285     0.44065448
    2 H                    1.0000     1.67835946     1.15041626     0.25427097
    3 H                    1.0000     1.13817796     2.56210687     0.61753493
    4 O                    8.0000    -0.84418436     0.56955030    -1.66916598
    5 H                    1.0000    -0.29046704     1.12621640    -1.09103033
    6 H                    1.0000    -0.39249960    -0.29128927    -1.61989120
    7 O                    8.0000    -0.66435547    -0.53534994     1.60311022
    8 H                    1.0000    -0.22279383     0.32566817     1.49063212
    9 H                    1.0000    -1.56797103    -0.37089705     1.26042432
   10 O                    8.0000     0.55266771    -1.73835073    -0.46660097
   11 H                    1.0000     0.41053471    -2.69101062    -0.52389037
   12 H                    1.0000     0.06547926    -1.43627071     0.34796771

         Total SCF energy =   -304.135160113543

 Vector    5  Occ=2.000000D+00  E=-1.385137D+00

 Vector    6  Occ=2.000000D+00  E=-1.352373D+00

 Vector    7  Occ=2.000000D+00  E=-1.309108D+00

 Vector    8  Occ=2.000000D+00  E=-1.283764D+00

 Vector    9  Occ=2.000000D+00  E=-7.482730D-01

 Vector   10  Occ=2.000000D+00  E=-7.101183D-01

 Vector   11  Occ=2.000000D+00  E=-6.900562D-01

 Vector   12  Occ=2.000000D+00  E=-6.557049D-01

 Vector   13  Occ=2.000000D+00  E=-6.219297D-01

 Vector   14  Occ=2.000000D+00  E=-5.855550D-01

 Vector   15  Occ=2.000000D+00  E=-5.638867D-01

 Vector   16  Occ=2.000000D+00  E=-5.447950D-01

 Vector   17  Occ=2.000000D+00  E=-5.177819D-01

 Vector   18  Occ=2.000000D+00  E=-4.968512D-01

 Vector   19  Occ=2.000000D+00  E=-4.729818D-01

 Vector   20  Occ=2.000000D+00  E=-4.469214D-01

 Vector   21  Occ=0.000000D+00  E= 1.444657D-01

 Vector   22  Occ=0.000000D+00  E= 1.969934D-01

 Vector   23  Occ=0.000000D+00  E= 2.225580D-01

 Vector   24  Occ=0.000000D+00  E= 2.380212D-01

 Vector   25  Occ=0.000000D+00  E= 3.084330D-01

 Vector   26  Occ=0.000000D+00  E= 3.287210D-01

 Vector   27  Occ=0.000000D+00  E= 3.786751D-01

 Vector   28  Occ=0.000000D+00  E= 4.118148D-01

 Vector   29  Occ=0.000000D+00  E= 7.104093D-01

 Vector   30  Occ=0.000000D+00  E= 7.443139D-01

       Multipole analysis of the density wrt the origin
       ------------------------------------------------

     L   x y z        total         open         nuclear
     -   - - -        -----         ----         -------
     0   0 0 0     -0.000000      0.000000     40.000000

     1   1 0 0      0.827387      0.000000      0.000000
     1   0 1 0      0.553913      0.000000      0.000000
     1   0 0 1      0.963180      0.000000     -0.000000

     2   2 0 0    -16.216579      0.000000     87.617440
     2   1 1 0      5.046007      0.000000     23.474571
     2   1 0 1     -1.892825      0.000000     11.712665
     2   0 2 0    -10.948209      0.000000    249.348111
     2   0 1 1      3.954897      0.000000     -0.336174

 Total times  cpu:        4.2s     wall:        4.2s
