============================== echo of input deck ==============================
echo
memory 1000 mb
geometry noautosym noautoz
O 0.87715956 1.70409266 0.47858616
H 1.70199937 1.19722607 0.29220265
H 1.16181787 2.60891668 0.65546661
O -0.64071556 -0.48854013 1.6410419
H -0.19915392 0.37247798 1.5285638
H -1.54433112 -0.32408724 1.298356
O 0.57630762 -1.69154092 -0.42866929
H 0.43417462 -2.64420081 -0.48595869
H 0.08911917 -1.3894609 0.38589939
O -2.88801599 -0.0663369 0.05761427
H -2.29024563 0.26724676 -0.65069518
H -3.66545029 0.50362404 0.03495814
end
basis spherical
 * library cc-pvdz
end
task scf gradient
================================================================================

 Output coordinates in angstroms (scale by  1.889725989 to convert to a.u.)

  No.       Tag          Charge          X              Y              Z
 ---- ---------------- ---------- -------------- -------------- --------------
    1 O                    8.0000     1.40001418     1.79776415     0.05240173
    2 H                    1.0000     2.22485399     1.29089756    -0.13398178
    3 H                    1.0000     1.68467249     2.70258817     0.22928218
    4 O                    8.0000    -0.11786094    -0.39486864     1.21485747
    5 H                    1.0000     0.32370070     0.46614947     1.10237937
    6 H                    1.0000    -1.02147650    -0.23041575     0.87217157
    7 O                    8.0000     1.09916224    -1.59786943    -0.85485372
    8 H                    1.0000     0.95702924    -2.55052932    -0.91214312
    9 H                    1.0000     0.61197379    -1.29578941    -0.04028504
   10 O                    8.0000    -2.36516137     0.02733459    -0.36857016
   11 H                    1.0000    -1.76739101     0.36091825    -1.07687961
   12 H                    1.0000    -3.14259567     0.59729553    -0.39122629

         Total SCF energy =   -304.128897095660

 Vector    5  Occ=2.000000D+00  E=-1.358306D+00

 Vector    6  Occ=2.000000D+00  E=-1.352196D+00

 Vector    7  Occ=2.000000D+00  E=-1.313210D+00

 Vector    8  Occ=2.000000D+00  E=-1.271476D+00

 Vector    9  Occ=2.000000D+00  E=-7.233781D-01

 Vector   10  Occ=2.000000D+00  E=-7.161043D-01

 Vector   11  Occ=2.000000D+00  E=-6.786449D-01

 Vector   12  Occ=2.000000D+00  E=-6.531338D-01

 Vector   13  Occ=2.000000D+00  E=-6.022125D-01

 Vector   14  Occ=2.000000D+00  E=-5.820930D-01

 Vector   15  Occ=2.000000D+00  E=-5.538399D-01

 Vector   16  Occ=2.000000D+00  E=-5.221935D-01

 Vector   17  Occ=2.000000D+00  E=-5.152309D-01

 Vector   18  Occ=2.000000D+00  E=-5.064315D-01

 Vector   19  Occ=2.000000D+00  E=-4.593358D-01

 Vector   20  Occ=2.000000D+00  E=-4.402993D-01

 Vector   21  Occ=0.000000D+00  E= 1.578204D-01

 Vector   22  Occ=0.000000D+00  E= 1.804522D-01

 Vector   23  Occ=0.000000D+00  E= 2.303123D-01

 Vector   24  Occ=0.000000D+00  E= 2.510298D-01

 Vector   25  Occ=0.000000D+00  E= 2.595570D-01

 Vector   26  Occ=0.000000D+00  E= 3.101801D-01

 Vector   27  Occ=0.000000D+00  E= 3.966050D-01

 Vector   28  Occ=0.000000D+00  E= 4.356494D-01

 Vector   29  Occ=0.000000D+00  E= 7.261749D-01

 Vector   30  Occ=0.000000D+00  E= 7.496467D-01

       Multipole analysis of the density wrt the origin
       ------------------------------------------------

     L   x y z        total         open         nuclear
     -   - - -        -----         ----         -------
     0   0 0 0     -0.000000      0.000000     40.000000

     1   1 0 0     -0.330610      0.000000     -0.000000
     1   0 1 0      1.498096      0.000000      0.000000
     1   0 0 1     -0.262246      0.000000      0.000000

     2   2 0 0    -11.249451      0.000000    333.662048
     2   1 1 0      1.391684      0.000000     28.576231
     2   1 0 1      2.832571      0.000000      2.455168
     2   0 2 0    -11.980029      0.000000    233.713906
     2   0 1 1      0.469463      0.000000     36.706433

 Total times  cpu:        3.6s     wall:        3.7s
