============================== echo of input deck ==============================
echo
memory 1000 mb
geometry noautosym noautoz
O -0.82054445 0.61636011 -1.6312343
H -0.26682713 1.17302621 -1.05309865
H -0.36885969 -0.24447946 -1.58195952
O -0.64071556 -0.48854013 1.6410419
H -0.19915392 0.37247798 1.5285638
H -1.54433112 -0.32408724 1.298356
O -2.88801599 -0.0663369 0.05761427
H -2.29024563 0.26724676 -0.65069518
H -3.66545029 0.50362404 0.03495814
end
basis spherical
 * library cc-pvdz
end
task scf gradient
================================================================================

 Output coordinates in angstroms (scale by  1.889725989 to convert to a.u.)

  No.       Tag          Charge          X              Y              Z
 ---- ---------------- ---------- -------------- -------------- --------------
    1 O                    8.0000     0.61709141     0.54170435    -1.63508429
    2 H                    1.0000     1.17080873     1.09837045    -1.05694864
    3 H                    1.0000     1.06877617    -0.31913522    -1.58580951
    4 O                    8.0000     0.79692030    -0.56319589     1.63719192
    5 H                    1.0000     1.23848194     0.29782222     1.52471382
    6 H                    1.0000    -0.10669526    -0.39874300     1.29450602
    7 O                    8.0000    -1.45038013    -0.14099266     0.05376429
    8 H                    1.0000    -0.85260977     0.19259100    -0.65454517
    9 H                    1.0000    -2.22781443     0.42896828     0.03110816

         Total SCF energy =   -228.093897338329

 Vector    4  Occ=2.000000D+00  E=-1.378526D+00

 Vector    5  Occ=2.000000D+00  E=-1.333703D+00

 Vector    6  Occ=2.000000D+00  E=-1.301454D+00

 Vector    7  Occ=2.000000D+00  E=-7.305721D-01

 Vector    8  Occ=2.000000D+00  E=-7.099522D-01

 Vector    9  Occ=2.000000D+00  E=-6.685114D-01

 Vector   10  Occ=2.000000D+00  E=-6.175652D-01

 Vector   11  Occ=2.000000D+00  E=-5.742985D-01

 Vector   12  Occ=2.000000D+00  E=-5.463483D-01

 Vector   13  Occ=2.000000D+00  E=-5.236075D-01

 Vector   14  Occ=2.000000D+00  E=-4.900830D-01

 Vector   15  Occ=2.000000D+00  E=-4.665481D-01

 Vector   16  Occ=0.000000D+00  E= 1.424127D-01

 Vector   17  Occ=0.000000D+00  E= 2.082767D-01

 Vector   18  Occ=0.000000D+00  E= 2.194191D-01

 Vector   19  Occ=0.000000D+00  E= 2.631393D-01

 Vector   20  Occ=0.000000D+00  E= 3.630544D-01

 Vector   21  Occ=0.000000D+00  E= 3.874278D-01

 Vector   22  Occ=0.000000D+00  E= 7.258544D-01

 Vector   23  Occ=0.000000D+00  E= 7.495613D-01

 Vector   24  Occ=0.000000D+00  E= 8.030053D-01

 Vector   25  Occ=0.000000D+00  E= 8.121966D-01

       Multipole analysis of the density wrt the origin
       ------------------------------------------------

     L   x y z        total         open         nuclear
     -   - - -        -----         ----         -------
     0   0 0 0     -0.000000      0.000000     30.000000

     1   1 0 0      0.227468      0.000000     -0.000000
     1   0 1 0      1.146326      0.000000     -0.000000
     1   0 0 1     -0.668296      0.000000     -0.000000

     2   2 0 0    -10.201398      0.000000    123.931244
     2   1 1 0      0.056020      0.000000      3.414069
     2   1 0 1     -1.902095      0.000000      3.744304
     2   0 2 0    -13.963865      0.000000     24.358805
     2   0 1 1      3.643610      0.000000    -54.825155

 Total times  cpu:        2.7s     wall:        2.8s
