============================== echo of input deck ==============================
echo
memory 1000 mb
geometry noautosym noautoz
O 0.87715956 1.70409266 0.47858616
H 1.70199937 1.19722607 0.29220265
H 1.16181787 2.60891668 0.65546661
O -0.64071556 -0.48854013 1.6410419
H -0.19915392 0.37247798 1.5285638
H -1.54433112 -0.32408724 1.298356
O 0.57630762 -1.69154092 -0.42866929
H 0.43417462 -2.64420081 -0.48595869
H 0.08911917 -1.3894609 0.38589939
end
basis spherical
 * library cc-pvdz
end
task scf gradient
================================================================================

 Output coordinates in angstroms (scale by  1.889725989 to convert to a.u.)

  No.       Tag          Charge          X              Y              Z
 ---- ---------------- ---------- -------------- -------------- --------------
    1 O                    8.0000     0.60563826     1.83699384    -0.09482050
    2 H                    1.0000     1.43047807     1.33012725    -0.28120401
    3 H                    1.0000     0.89029657     2.74181786     0.08205995
    4 O                    8.0000    -0.91223686    -0.35563895     1.06763524
    5 H                    1.0000    -0.47067522     0.50537916     0.95515714
    6 H                    1.0000    -1.81585242    -0.19118606     0.72494934
    7 O                    8.0000     0.30478632    -1.55863974    -1.00207595
    8 H                    1.0000     0.16265332    -2.51129963    -1.05936535
    9 H                    1.0000    -0.18240213    -1.25655972    -0.18750727

         Total SCF energy =   -228.093487658547

 Vector    4  Occ=2.000000D+00  E=-1.355390D+00

 Vector    5  Occ=2.000000D+00  E=-1.341588D+00

 Vector    6  Occ=2.000000D+00  E=-1.279432D+00

 Vector    7  Occ=2.000000D+00  E=-7.197836D-01

 Vector    8  Occ=2.000000D+00  E=-6.987626D-01

 Vector    9  Occ=2.000000D+00  E=-6.631079D-01

 Vector   10  Occ=2.000000D+00  E=-6.001863D-01

 Vector   11  Occ=2.000000D+00  E=-5.708694D-01

 Vector   12  Occ=2.000000D+00  E=-5.305172D-01

 Vector   13  Occ=2.000000D+00  E=-5.167930D-01

 Vector   14  Occ=2.000000D+00  E=-4.823088D-01

 Vector   15  Occ=2.000000D+00  E=-4.472231D-01

 Vector   16  Occ=0.000000D+00  E= 1.615295D-01

 Vector   17  Occ=0.000000D+00  E= 2.052088D-01

 Vector   18  Occ=0.000000D+00  E= 2.362025D-01

 Vector   19  Occ=0.000000D+00  E= 2.564822D-01

 Vector   20  Occ=0.000000D+00  E= 3.382680D-01

 Vector   21  Occ=0.000000D+00  E= 4.160163D-01

 Vector   22  Occ=0.000000D+00  E= 7.359547D-01

 Vector   23  Occ=0.000000D+00  E= 7.544799D-01

 Vector   24  Occ=0.000000D+00  E= 8.223359D-01

 Vector   25  Occ=0.000000D+00  E= 8.338214D-01

       Multipole analysis of the density wrt the origin
       ------------------------------------------------

     L   x y z        total         open         nuclear
     -   - - -        -----         ----         -------
     0   0 0 0     -0.000000      0.000000     30.000000

     1   1 0 0      0.004844      0.000000      0.000000
     1   0 1 0      0.850194      0.000000     -0.000000
     1   0 0 1      0.350680      0.000000      0.000000

     2   2 0 0     -9.637072      0.000000     59.823988
     2   1 1 0      3.454841      0.000000     42.742791
     2   1 0 1      0.544513      0.000000    -46.165053
     2   0 2 0     -7.312776      0.000000    231.788493
     2   0 1 1      1.166068      0.000000     39.835418

 Total times  cpu:        2.1s     wall:        2.1s
