============================== echo of input deck ==============================
echo
memory 1000 mb
geometry noautosym noautoz
O -0.82054445 0.61636011 -1.6312343
H -0.26682713 1.17302621 -1.05309865
H -0.36885969 -0.24447946 -1.58195952
O 0.57630762 -1.69154092 -0.42866929
H 0.43417462 -2.64420081 -0.48595869
H 0.08911917 -1.3894609 0.38589939
O 2.81159896 -0.10395953 -0.18689424
H 3.46294039 -0.4517338 0.43482057
H 2.1584952 -0.82915775 -0.30211113
end
basis spherical
 * library cc-pvdz
end
task scf gradient
================================================================================

 Output coordinates in angstroms (scale by  1.889725989 to convert to a.u.)

  No.       Tag          Charge          X              Y              Z
 ---- ---------------- ---------- -------------- -------------- --------------
    1 O                    8.0000    -1.68880910     1.07699775    -0.94534128
    2 H                    1.0000    -1.13509178     1.63366385    -0.36720563
    3 H                    1.0000    -1.23712434     0.21615818    -0.89606650
    4 O                    8.0000    -0.29195703    -1.23090328     0.25722373
    5 H                    1.0000    -0.43409003    -2.18356317     0.19993433
    6 H                    1.0000    -0.77914548    -0.92882326     1.07179241
    7 O                    8.0000     1.94333431     0.35667811     0.49899878
    8 H                    1.0000     2.59467574     0.00890384     1.12071359
    9 H                    1.0000     1.29023055    -0.36852011     0.38378189

         Total SCF energy =   -228.088579940266

 Vector    4  Occ=2.000000D+00  E=-1.389745D+00

 Vector    5  Occ=2.000000D+00  E=-1.306812D+00

 Vector    6  Occ=2.000000D+00  E=-1.306275D+00

 Vector    7  Occ=2.000000D+00  E=-7.531735D-01

 Vector    8  Occ=2.000000D+00  E=-6.882426D-01

 Vector    9  Occ=2.000000D+00  E=-6.677242D-01

 Vector   10  Occ=2.000000D+00  E=-6.151055D-01

 Vector   11  Occ=2.000000D+00  E=-5.704086D-01

 Vector   12  Occ=2.000000D+00  E=-5.400682D-01

 Vector   13  Occ=2.000000D+00  E=-5.254402D-01

 Vector   14  Occ=2.000000D+00  E=-4.702928D-01

 Vector   15  Occ=2.000000D+00  E=-4.695328D-01

 Vector   16  Occ=0.000000D+00  E= 1.385551D-01

 Vector   17  Occ=0.000000D+00  E= 2.107473D-01

 Vector   18  Occ=0.000000D+00  E= 2.225971D-01

 Vector   19  Occ=0.000000D+00  E= 2.405493D-01

 Vector   20  Occ=0.000000D+00  E= 3.266083D-01

 Vector   21  Occ=0.000000D+00  E= 3.783902D-01

 Vector   22  Occ=0.000000D+00  E= 7.116072D-01

 Vector   23  Occ=0.000000D+00  E= 7.745019D-01

 Vector   24  Occ=0.000000D+00  E= 7.942435D-01

 Vector   25  Occ=0.000000D+00  E= 8.049723D-01

       Multipole analysis of the density wrt the origin
       ------------------------------------------------

     L   x y z        total         open         nuclear
     -   - - -        -----         ----         -------
     0   0 0 0     -0.000000      0.000000     30.000000

     1   1 0 0      0.110319      0.000000      0.000000
     1   0 1 0     -1.651402      0.000000      0.000000
     1   0 0 1      1.320335      0.000000     -0.000000

     2   2 0 0    -17.730428      0.000000    234.698758
     2   1 1 0      1.057713      0.000000    -25.116075
     2   1 0 1     -1.417602      0.000000     85.475333
     2   0 2 0    -10.285009      0.000000    110.346814
     2   0 1 1      0.174143      0.000000    -41.464479

 Total times  cpu:        2.5s     wall:        2.6s
