============================== echo of input deck ==============================
echo
memory 1000 mb
geometry noautosym noautoz
O 0.87715956 1.70409266 0.47858616
H 1.70199937 1.19722607 0.29220265
H 1.16181787 2.60891668 0.65546661
O -0.82054445 0.61636011 -1.6312343
H -0.26682713 1.17302621 -1.05309865
H -0.36885969 -0.24447946 -1.58195952
O 0.57630762 -1.69154092 -0.42866929
H 0.43417462 -2.64420081 -0.48595869
H 0.08911917 -1.3894609 0.38589939
O 2.81159896 -0.10395953 -0.18689424
H 3.46294039 -0.4517338 0.43482057
H 2.1584952 -0.82915775 -0.30211113
end
basis spherical
 * library cc-pvdz
end
task scf gradient
================================================================================

 Output coordinates in angstroms (scale by  1.889725989 to convert to a.u.)

  No.       Tag          Charge          X              Y              Z
 ---- ---------------- ---------- -------------- -------------- --------------
    1 O                    8.0000    -0.02106627     1.61359879     0.87359696
    2 H                    1.0000     0.80377354     1.10673220     0.68721345
    3 H                    1.0000     0.26359204     2.51842281     1.05047741
    4 O                    8.0000    -1.71877028     0.52586624    -1.23622350
    5 H                    1.0000    -1.16505296     1.08253234    -0.65808785
    6 H                    1.0000    -1.26708552    -0.33497333    -1.18694872
    7 O                    8.0000    -0.32191821    -1.78203479    -0.03365849
    8 H                    1.0000    -0.46405121    -2.73469468    -0.09094789
    9 H                    1.0000    -0.80910666    -1.47995477     0.78091019
   10 O                    8.0000     1.91337313    -0.19445340     0.20811656
   11 H                    1.0000     2.56471456    -0.54222767     0.82983137
   12 H                    1.0000     1.26026937    -0.91965162     0.09289967

         Total SCF energy =   -304.132742604978

 Vector    5  Occ=2.000000D+00  E=-1.387332D+00

 Vector    6  Occ=2.000000D+00  E=-1.348104D+00

 Vector    7  Occ=2.000000D+00  E=-1.315964D+00

 Vector    8  Occ=2.000000D+00  E=-1.273760D+00

 Vector    9  Occ=2.000000D+00  E=-7.513290D-01

 Vector   10  Occ=2.000000D+00  E=-7.191961D-01

 Vector   11  Occ=2.000000D+00  E=-6.911917D-01

 Vector   12  Occ=2.000000D+00  E=-6.438676D-01

 Vector   13  Occ=2.000000D+00  E=-6.210933D-01

 Vector   14  Occ=2.000000D+00  E=-5.849421D-01

 Vector   15  Occ=2.000000D+00  E=-5.664268D-01

 Vector   16  Occ=2.000000D+00  E=-5.368670D-01

 Vector   17  Occ=2.000000D+00  E=-5.117523D-01

 Vector   18  Occ=2.000000D+00  E=-5.015021D-01

 Vector   19  Occ=2.000000D+00  E=-4.746005D-01

 Vector   20  Occ=2.000000D+00  E=-4.372853D-01

 Vector   21  Occ=0.000000D+00  E= 1.420618D-01

 Vector   22  Occ=0.000000D+00  E= 1.932379D-01

 Vector   23  Occ=0.000000D+00  E= 2.173008D-01

 Vector   24  Occ=0.000000D+00  E= 2.333706D-01

 Vector   25  Occ=0.000000D+00  E= 3.055924D-01

 Vector   26  Occ=0.000000D+00  E= 3.642104D-01

 Vector   27  Occ=0.000000D+00  E= 3.788501D-01

 Vector   28  Occ=0.000000D+00  E= 4.120625D-01

 Vector   29  Occ=0.000000D+00  E= 7.052735D-01

 Vector   30  Occ=0.000000D+00  E= 7.487343D-01

       Multipole analysis of the density wrt the origin
       ------------------------------------------------

     L   x y z        total         open         nuclear
     -   - - -        -----         ----         -------
     0   0 0 0     -0.000000      0.000000     40.000000

     1   1 0 0      1.160013      0.000000     -0.000000
     1   0 1 0     -1.477005      0.000000      0.000000
     1   0 0 1      1.407948      0.000000      0.000000

     2   2 0 0    -21.483511      0.000000    237.362819
     2   1 1 0      3.096827      0.000000    -18.770884
     2   1 0 1     -0.615225      0.000000     88.844594
     2   0 2 0     -8.665753      0.000000    244.294924
     2   0 1 1      0.434106      0.000000     28.144914

 Total times  cpu:        5.4s     wall:        5.4s
