============================== echo of input deck ==============================
echo
memory 1000 mb
geometry noautosym noautoz
O 2.81159896 -0.10395953 -0.18689424
H 3.46294039 -0.4517338 0.43482057
H 2.1584952 -0.82915775 -0.30211113
O -2.88801599 -0.0663369 0.05761427
H -2.29024563 0.26724676 -0.65069518
H -3.66545029 0.50362404 0.03495814
end
basis spherical
 * library cc-pvdz
end
task scf gradient
================================================================================

 Output coordinates in angstroms (scale by  1.889725989 to convert to a.u.)

  No.       Tag          Charge          X              Y              Z
 ---- ---------------- ---------- -------------- -------------- --------------
    1 O                    8.0000     2.85887879    -0.01033992    -0.11103087
    2 H                    1.0000     3.51022022    -0.35811419     0.51068394
    3 H                    1.0000     2.20577503    -0.73553814    -0.22624776
    4 O                    8.0000    -2.84073616     0.02728271     0.13347764
    5 H                    1.0000    -2.24296580     0.36086637    -0.57483181
    6 H                    1.0000    -3.61817046     0.59724365     0.11082151

         Total SCF energy =   -152.050831611520

 Vector    2  Occ=2.000000D+00  E=-2.055255D+01

 Vector    3  Occ=2.000000D+00  E=-1.327563D+00

 Vector    4  Occ=2.000000D+00  E=-1.327285D+00

 Vector    5  Occ=2.000000D+00  E=-6.926250D-01

 Vector    6  Occ=2.000000D+00  E=-6.907925D-01

 Vector    7  Occ=2.000000D+00  E=-5.622257D-01

 Vector    8  Occ=2.000000D+00  E=-5.610541D-01

 Vector    9  Occ=2.000000D+00  E=-4.916367D-01

 Vector   10  Occ=2.000000D+00  E=-4.913406D-01

 Vector   11  Occ=0.000000D+00  E= 1.784989D-01

 Vector   12  Occ=0.000000D+00  E= 1.872402D-01

 Vector   13  Occ=0.000000D+00  E= 2.462737D-01

 Vector   14  Occ=0.000000D+00  E= 2.635138D-01

 Vector   15  Occ=0.000000D+00  E= 7.732903D-01

 Vector   16  Occ=0.000000D+00  E= 7.855682D-01

 Vector   17  Occ=0.000000D+00  E= 8.337003D-01

 Vector   18  Occ=0.000000D+00  E= 8.397883D-01

 Vector   19  Occ=0.000000D+00  E= 1.163270D+00

 Vector   20  Occ=0.000000D+00  E= 1.164545D+00

       Multipole analysis of the density wrt the origin
       ------------------------------------------------

     L   x y z        total         open         nuclear
     -   - - -        -----         ----         -------
     0   0 0 0     -0.000000      0.000000     20.000000

     1   1 0 0     -0.125773      0.000000     -0.000000
     1   0 1 0     -0.111645      0.000000      0.000000
     1   0 0 1     -0.149412      0.000000     -0.000000

     2   2 0 0     -5.709198      0.000000    590.128739
     2   1 1 0     -7.334702      0.000000    -23.948772
     2   1 0 1      4.692388      0.000000    -12.109015
     2   0 2 0     -8.512130      0.000000      4.153136
     2   0 1 1     -0.365587      0.000000     -0.426392

 Total times  cpu:        0.7s     wall:        0.7s
