============================== echo of input deck ==============================
echo
memory 1000 mb
geometry noautosym noautoz
O -0.82054445 0.61636011 -1.6312343
H -0.26682713 1.17302621 -1.05309865
H -0.36885969 -0.24447946 -1.58195952
O -0.64071556 -0.48854013 1.6410419
H -0.19915392 0.37247798 1.5285638
H -1.54433112 -0.32408724 1.298356
O 0.57630762 -1.69154092 -0.42866929
H 0.43417462 -2.64420081 -0.48595869
H 0.08911917 -1.3894609 0.38589939
O 2.81159896 -0.10395953 -0.18689424
H 3.46294039 -0.4517338 0.43482057
H 2.1584952 -0.82915775 -0.30211113
end
basis spherical
 * library cc-pvdz
end
task scf gradient
================================================================================

 Output coordinates in angstroms (scale by  1.889725989 to convert to a.u.)

  No.       Tag          Charge          X              Y              Z
 ---- ---------------- ---------- -------------- -------------- --------------
    1 O                    8.0000    -1.30001270     1.05833660    -1.51569591
    2 H                    1.0000    -0.74629538     1.61500270    -0.93756026
    3 H                    1.0000    -0.84832794     0.19749703    -1.46642113
    4 O                    8.0000    -1.12018381    -0.04656364     1.75658029
    5 H                    1.0000    -0.67862217     0.81445447     1.64410219
    6 H                    1.0000    -2.02379937     0.11788925     1.41389439
    7 O                    8.0000     0.09683937    -1.24956443    -0.31313090
    8 H                    1.0000    -0.04529363    -2.20222432    -0.37042030
    9 H                    1.0000    -0.39034908    -0.94748441     0.50143778
   10 O                    8.0000     2.33213071     0.33801696    -0.07135585
   11 H                    1.0000     2.98347214    -0.00975731     0.55035896
   12 H                    1.0000     1.67902695    -0.38718126    -0.18657274

         Total SCF energy =   -304.128894057070

 Vector    5  Occ=2.000000D+00  E=-1.387947D+00

 Vector    6  Occ=2.000000D+00  E=-1.352674D+00

 Vector    7  Occ=2.000000D+00  E=-1.313698D+00

 Vector    8  Occ=2.000000D+00  E=-1.300287D+00

 Vector    9  Occ=2.000000D+00  E=-7.403278D-01

 Vector   10  Occ=2.000000D+00  E=-7.305023D-01

 Vector   11  Occ=2.000000D+00  E=-6.795884D-01

 Vector   12  Occ=2.000000D+00  E=-6.729511D-01

 Vector   13  Occ=2.000000D+00  E=-6.260636D-01

 Vector   14  Occ=2.000000D+00  E=-5.915728D-01

 Vector   15  Occ=2.000000D+00  E=-5.603239D-01

 Vector   16  Occ=2.000000D+00  E=-5.429220D-01

 Vector   17  Occ=2.000000D+00  E=-5.299270D-01

 Vector   18  Occ=2.000000D+00  E=-5.047783D-01

 Vector   19  Occ=2.000000D+00  E=-4.764904D-01

 Vector   20  Occ=2.000000D+00  E=-4.646996D-01

 Vector   21  Occ=0.000000D+00  E= 1.370189D-01

 Vector   22  Occ=0.000000D+00  E= 1.941232D-01

 Vector   23  Occ=0.000000D+00  E= 2.095669D-01

 Vector   24  Occ=0.000000D+00  E= 2.336690D-01

 Vector   25  Occ=0.000000D+00  E= 2.610132D-01

 Vector   26  Occ=0.000000D+00  E= 3.329690D-01

 Vector   27  Occ=0.000000D+00  E= 3.755466D-01

 Vector   28  Occ=0.000000D+00  E= 4.025845D-01

 Vector   29  Occ=0.000000D+00  E= 7.182093D-01

 Vector   30  Occ=0.000000D+00  E= 7.286083D-01

       Multipole analysis of the density wrt the origin
       ------------------------------------------------

     L   x y z        total         open         nuclear
     -   - - -        -----         ----         -------
     0   0 0 0     -0.000000      0.000000     40.000000

     1   1 0 0     -0.368201      0.000000     -0.000000
     1   0 1 0     -0.812193      0.000000      0.000000
     1   0 0 1      1.223740      0.000000      0.000000

     2   2 0 0    -19.374894      0.000000    303.012023
     2   1 1 0     -1.177605      0.000000    -27.228981
     2   1 0 1     -0.852562      0.000000     -8.698132
     2   0 2 0    -14.685499      0.000000    112.864509
     2   0 1 1      3.988814      0.000000    -37.283865

 Total times  cpu:        5.2s     wall:        5.3s
