============================== echo of input deck ==============================
echo
memory 1000 mb
geometry noautosym noautoz
O 0.87715956 1.70409266 0.47858616
H 1.70199937 1.19722607 0.29220265
H 1.16181787 2.60891668 0.65546661
O 0.57630762 -1.69154092 -0.42866929
H 0.43417462 -2.64420081 -0.48595869
H 0.08911917 -1.3894609 0.38589939
O -2.88801599 -0.0663369 0.05761427
H -2.29024563 0.26724676 -0.65069518
H -3.66545029 0.50362404 0.03495814
end
basis spherical
 * library cc-pvdz
end
task scf gradient
================================================================================

 Output coordinates in angstroms (scale by  1.889725989 to convert to a.u.)

  No.       Tag          Charge          X              Y              Z
 ---- ---------------- ---------- -------------- -------------- --------------
    1 O                    8.0000     1.34532541     1.70032364     0.44218209
    2 H                    1.0000     2.17016522     1.19345705     0.25579858
    3 H                    1.0000     1.62998372     2.60514766     0.61906254
    4 O                    8.0000     1.04447347    -1.69530994    -0.46507336
    5 H                    1.0000     0.90234047    -2.64796983    -0.52236276
    6 H                    1.0000     0.55728502    -1.39322992     0.34949532
    7 O                    8.0000    -2.41985014    -0.07010592     0.02121020
    8 H                    1.0000    -1.82207978     0.26347774    -0.68709925
    9 H                    1.0000    -3.19728444     0.49985502    -0.00144593

         Total SCF energy =   -228.080310485401

 Vector    4  Occ=2.000000D+00  E=-1.323290D+00

 Vector    5  Occ=2.000000D+00  E=-1.317657D+00

 Vector    6  Occ=2.000000D+00  E=-1.315143D+00

 Vector    7  Occ=2.000000D+00  E=-6.890555D-01

 Vector    8  Occ=2.000000D+00  E=-6.832793D-01

 Vector    9  Occ=2.000000D+00  E=-6.786806D-01

 Vector   10  Occ=2.000000D+00  E=-5.578317D-01

 Vector   11  Occ=2.000000D+00  E=-5.529368D-01

 Vector   12  Occ=2.000000D+00  E=-5.506691D-01

 Vector   13  Occ=2.000000D+00  E=-4.881634D-01

 Vector   14  Occ=2.000000D+00  E=-4.823136D-01

 Vector   15  Occ=2.000000D+00  E=-4.821239D-01

 Vector   16  Occ=0.000000D+00  E= 1.644427D-01

 Vector   17  Occ=0.000000D+00  E= 2.001429D-01

 Vector   18  Occ=0.000000D+00  E= 2.123048D-01

 Vector   19  Occ=0.000000D+00  E= 2.655368D-01

 Vector   20  Occ=0.000000D+00  E= 2.700581D-01

 Vector   21  Occ=0.000000D+00  E= 2.863361D-01

 Vector   22  Occ=0.000000D+00  E= 7.494061D-01

 Vector   23  Occ=0.000000D+00  E= 7.895711D-01

 Vector   24  Occ=0.000000D+00  E= 8.289196D-01

 Vector   25  Occ=0.000000D+00  E= 8.407095D-01

       Multipole analysis of the density wrt the origin
       ------------------------------------------------

     L   x y z        total         open         nuclear
     -   - - -        -----         ----         -------
     0   0 0 0     -0.000000      0.000000     30.000000

     1   1 0 0      0.212249      0.000000     -0.000000
     1   0 1 0      0.452483      0.000000     -0.000000
     1   0 0 1      0.011848      0.000000      0.000000

     2   2 0 0     -8.955198      0.000000    328.844497
     2   1 1 0      0.018581      0.000000     25.296419
     2   1 0 1      2.724546      0.000000     10.736588
     2   0 2 0     -6.689510      0.000000    227.276718
     2   0 1 1     -0.374555      0.000000     53.362496

 Total times  cpu:        1.3s     wall:        1.3s
