============================== echo of input deck ==============================
echo
memory 1000 mb
geometry noautosym noautoz
O -0.82054445 0.61636011 -1.6312343
H -0.26682713 1.17302621 -1.05309865
H -0.36885969 -0.24447946 -1.58195952
O -0.64071556 -0.48854013 1.6410419
H -0.19915392 0.37247798 1.5285638
H -1.54433112 -0.32408724 1.298356
O 2.81159896 -0.10395953 -0.18689424
H 3.46294039 -0.4517338 0.43482057
H 2.1584952 -0.82915775 -0.30211113
end
basis spherical
 * library cc-pvdz
end
task scf gradient
================================================================================

 Output coordinates in angstroms (scale by  1.889725989 to convert to a.u.)

  No.       Tag          Charge          X              Y              Z
 ---- ---------------- ---------- -------------- -------------- --------------
    1 O                    8.0000    -1.28871029     0.62012913    -1.59483023
    2 H                    1.0000    -0.73499297     1.17679523    -1.01669458
    3 H                    1.0000    -0.83702553    -0.24071044    -1.54555545
    4 O                    8.0000    -1.10888140    -0.48477111     1.67744597
    5 H                    1.0000    -0.66731976     0.37624700     1.56496787
    6 H                    1.0000    -2.01249696    -0.32031822     1.33476007
    7 O                    8.0000     2.34343312    -0.10019051    -0.15049017
    8 H                    1.0000     2.99477455    -0.44796478     0.47122464
    9 H                    1.0000     1.69032936    -0.82538873    -0.26570706

         Total SCF energy =   -228.081934422844

 Vector    4  Occ=2.000000D+00  E=-1.339817D+00

 Vector    5  Occ=2.000000D+00  E=-1.337050D+00

 Vector    6  Occ=2.000000D+00  E=-1.334738D+00

 Vector    7  Occ=2.000000D+00  E=-7.034744D-01

 Vector    8  Occ=2.000000D+00  E=-6.951336D-01

 Vector    9  Occ=2.000000D+00  E=-6.909643D-01

 Vector   10  Occ=2.000000D+00  E=-5.768777D-01

 Vector   11  Occ=2.000000D+00  E=-5.747661D-01

 Vector   12  Occ=2.000000D+00  E=-5.721630D-01

 Vector   13  Occ=2.000000D+00  E=-5.049838D-01

 Vector   14  Occ=2.000000D+00  E=-5.027761D-01

 Vector   15  Occ=2.000000D+00  E=-4.944838D-01

 Vector   16  Occ=0.000000D+00  E= 1.318512D-01

 Vector   17  Occ=0.000000D+00  E= 1.934011D-01

 Vector   18  Occ=0.000000D+00  E= 2.138742D-01

 Vector   19  Occ=0.000000D+00  E= 2.333473D-01

 Vector   20  Occ=0.000000D+00  E= 2.694294D-01

 Vector   21  Occ=0.000000D+00  E= 3.079232D-01

 Vector   22  Occ=0.000000D+00  E= 7.573873D-01

 Vector   23  Occ=0.000000D+00  E= 7.663398D-01

 Vector   24  Occ=0.000000D+00  E= 7.732753D-01

 Vector   25  Occ=0.000000D+00  E= 8.239500D-01

       Multipole analysis of the density wrt the origin
       ------------------------------------------------

     L   x y z        total         open         nuclear
     -   - - -        -----         ----         -------
     0   0 0 0      0.000000      0.000000     30.000000

     1   1 0 0      0.375874      0.000000     -0.000000
     1   0 1 0     -0.250158      0.000000     -0.000000
     1   0 0 1      0.466870      0.000000      0.000000

     2   2 0 0    -13.157256      0.000000    302.178969
     2   1 1 0     -2.387177      0.000000    -24.918346
     2   1 0 1      0.071338      0.000000     -7.096947
     2   0 2 0    -12.809107      0.000000     27.160456
     2   0 1 1      3.806620      0.000000    -53.393577

 Total times  cpu:        1.6s     wall:        1.6s
