============================== echo of input deck ==============================
echo
memory 1000 mb
geometry noautosym noautoz
O -0.82054445 0.61636011 -1.6312343
H -0.26682713 1.17302621 -1.05309865
H -0.36885969 -0.24447946 -1.58195952
O -0.64071556 -0.48854013 1.6410419
H -0.19915392 0.37247798 1.5285638
H -1.54433112 -0.32408724 1.298356
end
basis spherical
 * library cc-pvdz
end
task scf gradient
================================================================================

 Output coordinates in angstroms (scale by  1.889725989 to convert to a.u.)

  No.       Tag          Charge          X              Y              Z
 ---- ---------------- ---------- -------------- -------------- --------------
    1 O                    8.0000    -0.11708185     0.51638524    -1.64475042
    2 H                    1.0000     0.43663547     1.07305134    -1.06661477
    3 H                    1.0000     0.33460291    -0.34445433    -1.59547564
    4 O                    8.0000     0.06274704    -0.58851500     1.62752578
    5 H                    1.0000     0.50430868     0.27250311     1.51504768
    6 H                    1.0000    -0.84086852    -0.42406211     1.28483988

         Total SCF energy =   -152.053169483002

 Vector    2  Occ=2.000000D+00  E=-2.056232D+01

 Vector    3  Occ=2.000000D+00  E=-1.338664D+00

 Vector    4  Occ=2.000000D+00  E=-1.334709D+00

 Vector    5  Occ=2.000000D+00  E=-6.952613D-01

 Vector    6  Occ=2.000000D+00  E=-6.925854D-01

 Vector    7  Occ=2.000000D+00  E=-5.778251D-01

 Vector    8  Occ=2.000000D+00  E=-5.718697D-01

 Vector    9  Occ=2.000000D+00  E=-5.045706D-01

 Vector   10  Occ=2.000000D+00  E=-4.953213D-01

 Vector   11  Occ=0.000000D+00  E= 1.475399D-01

 Vector   12  Occ=0.000000D+00  E= 2.242104D-01

 Vector   13  Occ=0.000000D+00  E= 2.306347D-01

 Vector   14  Occ=0.000000D+00  E= 2.818854D-01

 Vector   15  Occ=0.000000D+00  E= 7.613211D-01

 Vector   16  Occ=0.000000D+00  E= 7.666566D-01

 Vector   17  Occ=0.000000D+00  E= 8.237038D-01

 Vector   18  Occ=0.000000D+00  E= 8.736316D-01

 Vector   19  Occ=0.000000D+00  E= 1.139451D+00

 Vector   20  Occ=0.000000D+00  E= 1.164760D+00

       Multipole analysis of the density wrt the origin
       ------------------------------------------------

     L   x y z        total         open         nuclear
     -   - - -        -----         ----         -------
     0   0 0 0     -0.000000      0.000000     20.000000

     1   1 0 0      0.350696      0.000000     -0.000000
     1   0 1 0      0.464409      0.000000     -0.000000
     1   0 0 1      0.104816      0.000000      0.000000

     2   2 0 0     -8.132686      0.000000      5.017915
     2   1 1 0      1.474146      0.000000      0.243503
     2   1 0 1     -2.210603      0.000000      3.719765
     2   0 2 0     -9.177484      0.000000     22.955528
     2   0 1 1      3.831232      0.000000    -54.223562

 Total times  cpu:        0.5s     wall:        0.6s
