============================== echo of input deck ==============================
echo
memory 1000 mb
geometry noautosym noautoz
O -0.64071556 -0.48854013 1.6410419
H -0.19915392 0.37247798 1.5285638
H -1.54433112 -0.32408724 1.298356
O 2.81159896 -0.10395953 -0.18689424
H 3.46294039 -0.4517338 0.43482057
H 2.1584952 -0.82915775 -0.30211113
O -2.88801599 -0.0663369 0.05761427
H -2.29024563 0.26724676 -0.65069518
H -3.66545029 0.50362404 0.03495814
end
basis spherical
 * library cc-pvdz
end
task scf gradient
================================================================================

 Output coordinates in angstroms (scale by  1.889725989 to convert to a.u.)

  No.       Tag          Charge          X              Y              Z
 ---- ---------------- ---------- -------------- -------------- --------------
    1 O                    8.0000    -0.38022202    -0.29746271     1.15977565
    2 H                    1.0000     0.06133962     0.56355540     1.04729755
    3 H                    1.0000    -1.28383758    -0.13300982     0.81708975
    4 O                    8.0000     3.07209250     0.08711789    -0.66816049
    5 H                    1.0000     3.72343393    -0.26065638    -0.04644568
    6 H                    1.0000     2.41898874    -0.63808033    -0.78337738
    7 O                    8.0000    -2.62752245     0.12474052    -0.42365198
    8 H                    1.0000    -2.02975209     0.45832418    -1.13196143
    9 H                    1.0000    -3.40495675     0.69470146    -0.44630811

         Total SCF energy =   -228.085506869403

 Vector    4  Occ=2.000000D+00  E=-1.365593D+00

 Vector    5  Occ=2.000000D+00  E=-1.323157D+00

 Vector    6  Occ=2.000000D+00  E=-1.298478D+00

 Vector    7  Occ=2.000000D+00  E=-7.304465D-01

 Vector    8  Occ=2.000000D+00  E=-6.864269D-01

 Vector    9  Occ=2.000000D+00  E=-6.678491D-01

 Vector   10  Occ=2.000000D+00  E=-5.950226D-01

 Vector   11  Occ=2.000000D+00  E=-5.585818D-01

 Vector   12  Occ=2.000000D+00  E=-5.493548D-01

 Vector   13  Occ=2.000000D+00  E=-5.130437D-01

 Vector   14  Occ=2.000000D+00  E=-4.871377D-01

 Vector   15  Occ=2.000000D+00  E=-4.631460D-01

 Vector   16  Occ=0.000000D+00  E= 1.539813D-01

 Vector   17  Occ=0.000000D+00  E= 1.854081D-01

 Vector   18  Occ=0.000000D+00  E= 2.280791D-01

 Vector   19  Occ=0.000000D+00  E= 2.501869D-01

 Vector   20  Occ=0.000000D+00  E= 2.697979D-01

 Vector   21  Occ=0.000000D+00  E= 3.699187D-01

 Vector   22  Occ=0.000000D+00  E= 7.340401D-01

 Vector   23  Occ=0.000000D+00  E= 7.818848D-01

 Vector   24  Occ=0.000000D+00  E= 7.979864D-01

 Vector   25  Occ=0.000000D+00  E= 8.126862D-01

       Multipole analysis of the density wrt the origin
       ------------------------------------------------

     L   x y z        total         open         nuclear
     -   - - -        -----         ----         -------
     0   0 0 0     -0.000000      0.000000     30.000000

     1   1 0 0     -0.654119      0.000000      0.000000
     1   0 1 0      0.601629      0.000000      0.000000
     1   0 0 1     -0.583266      0.000000      0.000000

     2   2 0 0     -7.777858      0.000000    603.405076
     2   1 1 0     -7.448246      0.000000    -18.500281
     2   1 0 1      4.953808      0.000000    -36.707581
     2   0 2 0    -13.263707      0.000000      8.556684
     2   0 1 1      1.187120      0.000000    -12.440607

 Total times  cpu:        1.8s     wall:        1.9s
