============================== echo of input deck ==============================
echo
memory 1000 mb
geometry noautosym noautoz
O 0.87715956 1.70409266 0.47858616
H 1.70199937 1.19722607 0.29220265
H 1.16181787 2.60891668 0.65546661
O -0.82054445 0.61636011 -1.6312343
H -0.26682713 1.17302621 -1.05309865
H -0.36885969 -0.24447946 -1.58195952
O -0.64071556 -0.48854013 1.6410419
H -0.19915392 0.37247798 1.5285638
H -1.54433112 -0.32408724 1.298356
end
basis spherical
 * library cc-pvdz
end
task scf gradient
================================================================================

 Output coordinates in angstroms (scale by  1.889725989 to convert to a.u.)

  No.       Tag          Charge          X              Y              Z
 ---- ---------------- ---------- -------------- -------------- --------------
    1 O                    8.0000     1.01676483     1.05614661     0.31036346
    2 H                    1.0000     1.84160464     0.54928002     0.12397995
    3 H                    1.0000     1.30142314     1.96097063     0.48724391
    4 O                    8.0000    -0.68093918    -0.03158594    -1.79945700
    5 H                    1.0000    -0.12722186     0.52508016    -1.22132135
    6 H                    1.0000    -0.22925442    -0.89242551    -1.75018222
    7 O                    8.0000    -0.50111029    -1.13648618     1.47281920
    8 H                    1.0000    -0.05954865    -0.27546807     1.36034110
    9 H                    1.0000    -1.40472585    -0.97203329     1.13013330

         Total SCF energy =   -228.091974044471

 Vector    4  Occ=2.000000D+00  E=-1.388377D+00

 Vector    5  Occ=2.000000D+00  E=-1.308771D+00

 Vector    6  Occ=2.000000D+00  E=-1.304587D+00

 Vector    7  Occ=2.000000D+00  E=-7.513154D-01

 Vector    8  Occ=2.000000D+00  E=-6.781035D-01

 Vector    9  Occ=2.000000D+00  E=-6.686817D-01

 Vector   10  Occ=2.000000D+00  E=-6.188822D-01

 Vector   11  Occ=2.000000D+00  E=-5.647894D-01

 Vector   12  Occ=2.000000D+00  E=-5.416449D-01

 Vector   13  Occ=2.000000D+00  E=-5.305649D-01

 Vector   14  Occ=2.000000D+00  E=-4.747138D-01

 Vector   15  Occ=2.000000D+00  E=-4.659236D-01

 Vector   16  Occ=0.000000D+00  E= 1.391708D-01

 Vector   17  Occ=0.000000D+00  E= 2.093594D-01

 Vector   18  Occ=0.000000D+00  E= 2.250618D-01

 Vector   19  Occ=0.000000D+00  E= 2.517864D-01

 Vector   20  Occ=0.000000D+00  E= 3.435347D-01

 Vector   21  Occ=0.000000D+00  E= 3.448867D-01

 Vector   22  Occ=0.000000D+00  E= 7.142701D-01

 Vector   23  Occ=0.000000D+00  E= 7.825720D-01

 Vector   24  Occ=0.000000D+00  E= 7.918877D-01

 Vector   25  Occ=0.000000D+00  E= 8.052253D-01

       Multipole analysis of the density wrt the origin
       ------------------------------------------------

     L   x y z        total         open         nuclear
     -   - - -        -----         ----         -------
     0   0 0 0     -0.000000      0.000000     30.000000

     1   1 0 0      1.332798      0.000000     -0.000000
     1   0 1 0      0.983431      0.000000     -0.000000
     1   0 0 1      0.174643      0.000000     -0.000000

     2   2 0 0     -9.645379      0.000000     75.419296
     2   1 1 0      2.513222      0.000000     65.715333
     2   1 0 1     -2.143679      0.000000     22.045090
     2   0 2 0    -12.220452      0.000000     91.077608
     2   0 1 1      4.434845      0.000000    -35.149150

 Total times  cpu:        1.8s     wall:        1.9s
