============================== echo of input deck ==============================
echo
memory 1000 mb
geometry noautosym noautoz
O -0.82054445 0.61636011 -1.6312343
H -0.26682713 1.17302621 -1.05309865
H -0.36885969 -0.24447946 -1.58195952
O 2.81159896 -0.10395953 -0.18689424
H 3.46294039 -0.4517338 0.43482057
H 2.1584952 -0.82915775 -0.30211113
O -2.88801599 -0.0663369 0.05761427
H -2.29024563 0.26724676 -0.65069518
H -3.66545029 0.50362404 0.03495814
end
basis spherical
 * library cc-pvdz
end
task scf gradient
================================================================================

 Output coordinates in angstroms (scale by  1.889725989 to convert to a.u.)

  No.       Tag          Charge          X              Y              Z
 ---- ---------------- ---------- -------------- -------------- --------------
    1 O                    8.0000    -0.54902315     0.48345893    -1.05782764
    2 H                    1.0000     0.00469417     1.04012503    -0.47969199
    3 H                    1.0000    -0.09733839    -0.37738064    -1.00855286
    4 O                    8.0000     3.08312026    -0.23686071     0.38651242
    5 H                    1.0000     3.73446169    -0.58463498     1.00822723
    6 H                    1.0000     2.43001650    -0.96205893     0.27129553
    7 O                    8.0000    -2.61649469    -0.19923808     0.63102093
    8 H                    1.0000    -2.01872433     0.13434558    -0.07728852
    9 H                    1.0000    -3.39392899     0.37072286     0.60836480

         Total SCF energy =   -228.084748506663

 Vector    4  Occ=2.000000D+00  E=-1.365492D+00

 Vector    5  Occ=2.000000D+00  E=-1.344244D+00

 Vector    6  Occ=2.000000D+00  E=-1.293674D+00

 Vector    7  Occ=2.000000D+00  E=-7.180837D-01

 Vector    8  Occ=2.000000D+00  E=-7.079460D-01

 Vector    9  Occ=2.000000D+00  E=-6.735796D-01

 Vector   10  Occ=2.000000D+00  E=-6.022039D-01

 Vector   11  Occ=2.000000D+00  E=-5.790208D-01

 Vector   12  Occ=2.000000D+00  E=-5.431693D-01

 Vector   13  Occ=2.000000D+00  E=-5.079421D-01

 Vector   14  Occ=2.000000D+00  E=-5.053841D-01

 Vector   15  Occ=2.000000D+00  E=-4.585347D-01

 Vector   16  Occ=0.000000D+00  E= 1.336199D-01

 Vector   17  Occ=0.000000D+00  E= 1.972591D-01

 Vector   18  Occ=0.000000D+00  E= 2.224820D-01

 Vector   19  Occ=0.000000D+00  E= 2.375665D-01

 Vector   20  Occ=0.000000D+00  E= 2.843307D-01

 Vector   21  Occ=0.000000D+00  E= 3.937015D-01

 Vector   22  Occ=0.000000D+00  E= 7.383021D-01

 Vector   23  Occ=0.000000D+00  E= 7.591544D-01

 Vector   24  Occ=0.000000D+00  E= 8.029234D-01

 Vector   25  Occ=0.000000D+00  E= 8.233570D-01

       Multipole analysis of the density wrt the origin
       ------------------------------------------------

     L   x y z        total         open         nuclear
     -   - - -        -----         ----         -------
     0   0 0 0     -0.000000      0.000000     30.000000

     1   1 0 0      0.814282      0.000000     -0.000000
     1   0 1 0     -0.256613      0.000000     -0.000000
     1   0 0 1      0.146935      0.000000      0.000000

     2   2 0 0    -12.714532      0.000000    602.365322
     2   1 1 0     -6.764837      0.000000    -35.010972
     2   1 0 1      3.885748      0.000000     12.793769
     2   0 2 0    -12.055292      0.000000     18.867242
     2   0 1 1      0.921452      0.000000    -23.508820

 Total times  cpu:        1.5s     wall:        1.6s
