============================== echo of input deck ==============================
echo
memory 1000 mb
geometry noautosym noautoz
O -0.64071556 -0.48854013 1.6410419
H -0.19915392 0.37247798 1.5285638
H -1.54433112 -0.32408724 1.298356
end
basis spherical
 * library cc-pvdz
end
task scf gradient
================================================================================

 Output coordinates in angstroms (scale by  1.889725989 to convert to a.u.)

  No.       Tag          Charge          X              Y              Z
 ---- ---------------- ---------- -------------- -------------- --------------
    1 O                    8.0000     0.04620539    -0.10254710     0.04551640
    2 H                    1.0000     0.48776703     0.75847101    -0.06696170
    3 H                    1.0000    -0.85741017     0.06190579    -0.29716950

         Total SCF energy =    -76.025094981879

 Vector    2  Occ=2.000000D+00  E=-1.327786D+00

 Vector    3  Occ=2.000000D+00  E=-6.864191D-01

 Vector    4  Occ=2.000000D+00  E=-5.654510D-01

 Vector    5  Occ=2.000000D+00  E=-4.922523D-01

 Vector    6  Occ=0.000000D+00  E= 1.818984D-01

 Vector    7  Occ=0.000000D+00  E= 2.533264D-01

 Vector    8  Occ=0.000000D+00  E= 7.710755D-01

 Vector    9  Occ=0.000000D+00  E= 8.415467D-01

 Vector   10  Occ=0.000000D+00  E= 1.165794D+00

 Vector   11  Occ=0.000000D+00  E= 1.199521D+00

 Vector   12  Occ=0.000000D+00  E= 1.256022D+00

 Vector   13  Occ=0.000000D+00  E= 1.436312D+00

 Vector   14  Occ=0.000000D+00  E= 1.475340D+00

 Vector   15  Occ=0.000000D+00  E= 1.664344D+00

       Multipole analysis of the density wrt the origin
       ------------------------------------------------

     L   x y z        total         open         nuclear
     -   - - -        -----         ----         -------
     0   0 0 0     -0.000000      0.000000     10.000000

     1   1 0 0     -0.312307      0.000000      0.000000
     1   0 1 0      0.697131      0.000000      0.000000
     1   0 0 1     -0.308841      0.000000     -0.000000

     2   2 0 0     -3.446898      0.000000      3.535884
     2   1 1 0      0.582664      0.000000      0.996229
     2   1 0 1      0.416872      0.000000      0.853339
     2   0 2 0     -4.160338      0.000000      2.368465
     2   0 1 1     -0.138174      0.000000     -0.380410

 Total times  cpu:        0.2s     wall:        0.3s
