============================== echo of input deck ==============================
echo
memory 1000 mb
geometry noautosym noautoz
O 0.87715956 1.70409266 0.47858616
H 1.70199937 1.19722607 0.29220265
H 1.16181787 2.60891668 0.65546661
O -0.82054445 0.61636011 -1.6312343
H -0.26682713 1.17302621 -1.05309865
H -0.36885969 -0.24447946 -1.58195952
O -0.64071556 -0.48854013 1.6410419
H -0.19915392 0.37247798 1.5285638
H -1.54433112 -0.32408724 1.298356
O 2.81159896 -0.10395953 -0.18689424
H 3.46294039 -0.4517338 0.43482057
H 2.1584952 -0.82915775 -0.30211113
end
basis spherical
 * library cc-pvdz
end
task scf gradient
================================================================================

 Output coordinates in angstroms (scale by  1.889725989 to convert to a.u.)

  No.       Tag          Charge          X              Y              Z
 ---- ---------------- ---------- -------------- -------------- --------------
    1 O                    8.0000     0.27900783     1.27094732     0.38648025
    2 H                    1.0000     1.10384764     0.76408073     0.20009674
    3 H                    1.0000     0.56366614     2.17577134     0.56336070
    4 O                    8.0000    -1.41869618     0.18321477    -1.72334021
    5 H                    1.0000    -0.86497886     0.73988087    -1.14520456
    6 H                    1.0000    -0.96701142    -0.67762480    -1.67406543
    7 O                    8.0000    -1.23886729    -0.92168547     1.54893599
    8 H                    1.0000    -0.79730565    -0.06066736     1.43645789
    9 H                    1.0000    -2.14248285    -0.75723258     1.20625009
   10 O                    8.0000     2.21344723    -0.53710487    -0.27900015
   11 H                    1.0000     2.86478866    -0.88487914     0.34271466
   12 H                    1.0000     1.56034347    -1.26230309    -0.39421704

         Total SCF energy =   -304.130936926609

 Vector    5  Occ=2.000000D+00  E=-1.384165D+00

 Vector    6  Occ=2.000000D+00  E=-1.351916D+00

 Vector    7  Occ=2.000000D+00  E=-1.303895D+00

 Vector    8  Occ=2.000000D+00  E=-1.302730D+00

 Vector    9  Occ=2.000000D+00  E=-7.475859D-01

 Vector   10  Occ=2.000000D+00  E=-7.227661D-01

 Vector   11  Occ=2.000000D+00  E=-6.718514D-01

 Vector   12  Occ=2.000000D+00  E=-6.641580D-01

 Vector   13  Occ=2.000000D+00  E=-6.217816D-01

 Vector   14  Occ=2.000000D+00  E=-5.908158D-01

 Vector   15  Occ=2.000000D+00  E=-5.506094D-01

 Vector   16  Occ=2.000000D+00  E=-5.432309D-01

 Vector   17  Occ=2.000000D+00  E=-5.320896D-01

 Vector   18  Occ=2.000000D+00  E=-5.069712D-01

 Vector   19  Occ=2.000000D+00  E=-4.717760D-01

 Vector   20  Occ=2.000000D+00  E=-4.629692D-01

 Vector   21  Occ=0.000000D+00  E= 1.354496D-01

 Vector   22  Occ=0.000000D+00  E= 1.942555D-01

 Vector   23  Occ=0.000000D+00  E= 1.992528D-01

 Vector   24  Occ=0.000000D+00  E= 2.382675D-01

 Vector   25  Occ=0.000000D+00  E= 2.830070D-01

 Vector   26  Occ=0.000000D+00  E= 3.391586D-01

 Vector   27  Occ=0.000000D+00  E= 3.585297D-01

 Vector   28  Occ=0.000000D+00  E= 3.870375D-01

 Vector   29  Occ=0.000000D+00  E= 7.229733D-01

 Vector   30  Occ=0.000000D+00  E= 7.356930D-01

       Multipole analysis of the density wrt the origin
       ------------------------------------------------

     L   x y z        total         open         nuclear
     -   - - -        -----         ----         -------
     0   0 0 0     -0.000000      0.000000     40.000000

     1   1 0 0      1.547481      0.000000      0.000000
     1   0 1 0      0.064258      0.000000     -0.000000
     1   0 0 1      0.480904      0.000000     -0.000000

     2   2 0 0    -16.153883      0.000000    311.698898
     2   1 1 0     -1.422206      0.000000     -1.311995
     2   1 0 1      0.162780      0.000000     -0.304046
     2   0 2 0    -14.338310      0.000000    112.748446
     2   0 1 1      4.335632      0.000000    -28.422417

 Total times  cpu:        4.0s     wall:        4.1s
