============================== echo of input deck ==============================
echo
memory 1000 mb
geometry noautosym noautoz
O -0.64071556 -0.48854013 1.6410419
H -0.19915392 0.37247798 1.5285638
H -1.54433112 -0.32408724 1.298356
O -2.88801599 -0.0663369 0.05761427
H -2.29024563 0.26724676 -0.65069518
H -3.66545029 0.50362404 0.03495814
end
basis spherical
 * library cc-pvdz
end
task scf gradient
================================================================================

 Output coordinates in angstroms (scale by  1.889725989 to convert to a.u.)

  No.       Tag          Charge          X              Y              Z
 ---- ---------------- ---------- -------------- -------------- --------------
    1 O                    8.0000     1.15573611    -0.30755240     0.85102029
    2 H                    1.0000     1.59729775     0.55346572     0.73854219
    3 H                    1.0000     0.25212055    -0.14309951     0.50833439
    4 O                    8.0000    -1.09156432     0.11465084    -0.73240734
    5 H                    1.0000    -0.49379396     0.44823450    -1.44071679
    6 H                    1.0000    -1.86899862     0.68461178    -0.75506347

         Total SCF energy =   -152.056459378302

 Vector    2  Occ=2.000000D+00  E=-2.051918D+01

 Vector    3  Occ=2.000000D+00  E=-1.365232D+00

 Vector    4  Occ=2.000000D+00  E=-1.296540D+00

 Vector    5  Occ=2.000000D+00  E=-7.300261D-01

 Vector    6  Occ=2.000000D+00  E=-6.663358D-01

 Vector    7  Occ=2.000000D+00  E=-5.942379D-01

 Vector    8  Occ=2.000000D+00  E=-5.477921D-01

 Vector    9  Occ=2.000000D+00  E=-5.116585D-01

 Vector   10  Occ=2.000000D+00  E=-4.610781D-01

 Vector   11  Occ=0.000000D+00  E= 1.560632D-01

 Vector   12  Occ=0.000000D+00  E= 2.213653D-01

 Vector   13  Occ=0.000000D+00  E= 2.445898D-01

 Vector   14  Occ=0.000000D+00  E= 3.697133D-01

 Vector   15  Occ=0.000000D+00  E= 7.350740D-01

 Vector   16  Occ=0.000000D+00  E= 7.973461D-01

 Vector   17  Occ=0.000000D+00  E= 8.129617D-01

 Vector   18  Occ=0.000000D+00  E= 8.646955D-01

 Vector   19  Occ=0.000000D+00  E= 1.127565D+00

 Vector   20  Occ=0.000000D+00  E= 1.181179D+00

       Multipole analysis of the density wrt the origin
       ------------------------------------------------

     L   x y z        total         open         nuclear
     -   - - -        -----         ----         -------
     0   0 0 0     -0.000000      0.000000     20.000000

     1   1 0 0     -0.649205      0.000000      0.000000
     1   0 1 0      1.333999      0.000000      0.000000
     1   0 0 1     -0.937081      0.000000      0.000000

     2   2 0 0     -7.890888      0.000000     94.882544
     2   1 1 0      0.337588      0.000000    -16.061533
     2   1 0 1     -0.352691      0.000000     63.188769
     2   0 2 0     -8.955979      0.000000      6.636021
     2   0 1 1     -0.375015      0.000000    -12.828422

 Total times  cpu:        0.8s     wall:        0.8s
