============================== echo of input deck ==============================
echo
memory 1000 mb
geometry noautosym noautoz
O 0.57630762 -1.69154092 -0.42866929
H 0.43417462 -2.64420081 -0.48595869
H 0.08911917 -1.3894609 0.38589939
O 2.81159896 -0.10395953 -0.18689424
H 3.46294039 -0.4517338 0.43482057
H 2.1584952 -0.82915775 -0.30211113
end
basis spherical
 * library cc-pvdz
end
task scf gradient
================================================================================

 Output coordinates in angstroms (scale by  1.889725989 to convert to a.u.)

  No.       Tag          Charge          X              Y              Z
 ---- ---------------- ---------- -------------- -------------- --------------
    1 O                    8.0000    -1.08609148    -0.70761308    -0.18407639
    2 H                    1.0000    -1.22822448    -1.66027297    -0.24136579
    3 H                    1.0000    -1.57327993    -0.40553306     0.63049230
    4 O                    8.0000     1.14919986     0.87996831     0.05769867
    5 H                    1.0000     1.80054129     0.53219404     0.67941348
    6 H                    1.0000     0.49609610     0.15477009    -0.05751823

         Total SCF energy =   -152.055933042872

 Vector    2  Occ=2.000000D+00  E=-2.051109D+01

 Vector    3  Occ=2.000000D+00  E=-1.362195D+00

 Vector    4  Occ=2.000000D+00  E=-1.291117D+00

 Vector    5  Occ=2.000000D+00  E=-7.260148D-01

 Vector    6  Occ=2.000000D+00  E=-6.697629D-01

 Vector    7  Occ=2.000000D+00  E=-5.897638D-01

 Vector    8  Occ=2.000000D+00  E=-5.423043D-01

 Vector    9  Occ=2.000000D+00  E=-5.079994D-01

 Vector   10  Occ=2.000000D+00  E=-4.551123D-01

 Vector   11  Occ=0.000000D+00  E= 1.579165D-01

 Vector   12  Occ=0.000000D+00  E= 2.300897D-01

 Vector   13  Occ=0.000000D+00  E= 2.356010D-01

 Vector   14  Occ=0.000000D+00  E= 3.873555D-01

 Vector   15  Occ=0.000000D+00  E= 7.424203D-01

 Vector   16  Occ=0.000000D+00  E= 8.011555D-01

 Vector   17  Occ=0.000000D+00  E= 8.076523D-01

 Vector   18  Occ=0.000000D+00  E= 8.588090D-01

 Vector   19  Occ=0.000000D+00  E= 1.124309D+00

 Vector   20  Occ=0.000000D+00  E= 1.183853D+00

       Multipole analysis of the density wrt the origin
       ------------------------------------------------

     L   x y z        total         open         nuclear
     -   - - -        -----         ----         -------
     0   0 0 0     -0.000000      0.000000     20.000000

     1   1 0 0     -0.659656      0.000000     -0.000000
     1   0 1 0     -1.327981      0.000000      0.000000
     1   0 0 1      0.835257      0.000000     -0.000000

     2   2 0 0     -6.900439      0.000000     98.110869
     2   1 1 0      0.209498      0.000000     64.102601
     2   1 0 1     -0.055510      0.000000      9.388816
     2   0 2 0     -8.842210      0.000000     47.954507
     2   0 1 1      0.316526      0.000000      6.949106

 Total times  cpu:        0.6s     wall:        0.6s
