============================== echo of input deck ==============================
echo
memory 1000 mb
geometry noautosym noautoz
O -0.82054445 0.61636011 -1.6312343
H -0.26682713 1.17302621 -1.05309865
H -0.36885969 -0.24447946 -1.58195952
O -2.88801599 -0.0663369 0.05761427
H -2.29024563 0.26724676 -0.65069518
H -3.66545029 0.50362404 0.03495814
end
basis spherical
 * library cc-pvdz
end
task scf gradient
================================================================================

 Output coordinates in angstroms (scale by  1.889725989 to convert to a.u.)

  No.       Tag          Charge          X              Y              Z
 ---- ---------------- ---------- -------------- -------------- --------------
    1 O                    8.0000     0.99244886     0.31137995    -0.83924653
    2 H                    1.0000     1.54616618     0.86804605    -0.26111088
    3 H                    1.0000     1.44413362    -0.54945962    -0.78997175
    4 O                    8.0000    -1.07502268    -0.37131706     0.84960204
    5 H                    1.0000    -0.47725232    -0.03773340     0.14129259
    6 H                    1.0000    -1.85245698     0.19864388     0.82694591

         Total SCF energy =   -152.058340950537

 Vector    2  Occ=2.000000D+00  E=-2.051395D+01

 Vector    3  Occ=2.000000D+00  E=-1.368468D+00

 Vector    4  Occ=2.000000D+00  E=-1.294016D+00

 Vector    5  Occ=2.000000D+00  E=-7.210092D-01

 Vector    6  Occ=2.000000D+00  E=-6.742085D-01

 Vector    7  Occ=2.000000D+00  E=-6.049402D-01

 Vector    8  Occ=2.000000D+00  E=-5.444778D-01

 Vector    9  Occ=2.000000D+00  E=-5.071058D-01

 Vector   10  Occ=2.000000D+00  E=-4.588036D-01

 Vector   11  Occ=0.000000D+00  E= 1.621828D-01

 Vector   12  Occ=0.000000D+00  E= 2.316982D-01

 Vector   13  Occ=0.000000D+00  E= 2.379108D-01

 Vector   14  Occ=0.000000D+00  E= 3.882865D-01

 Vector   15  Occ=0.000000D+00  E= 7.359811D-01

 Vector   16  Occ=0.000000D+00  E= 7.999048D-01

 Vector   17  Occ=0.000000D+00  E= 8.275099D-01

 Vector   18  Occ=0.000000D+00  E= 8.600871D-01

 Vector   19  Occ=0.000000D+00  E= 1.110770D+00

 Vector   20  Occ=0.000000D+00  E= 1.193293D+00

       Multipole analysis of the density wrt the origin
       ------------------------------------------------

     L   x y z        total         open         nuclear
     -   - - -        -----         ----         -------
     0   0 0 0     -0.000000      0.000000     20.000000

     1   1 0 0      0.779332      0.000000     -0.000000
     1   0 1 0      0.459267      0.000000      0.000000
     1   0 0 1     -0.218246      0.000000      0.000000

     2   2 0 0     -4.833555      0.000000     90.207036
     2   1 1 0     -1.806429      0.000000     20.941803
     2   1 0 1      0.525729      0.000000    -61.114714
     2   0 2 0     -8.910822      0.000000     10.623787
     2   0 1 1      2.130735      0.000000    -15.169998

 Total times  cpu:        0.7s     wall:        0.8s
