============================== echo of input deck ==============================
echo
memory 1000 mb
geometry noautosym noautoz
O 0.87715956 1.70409266 0.47858616
H 1.70199937 1.19722607 0.29220265
H 1.16181787 2.60891668 0.65546661
O -0.64071556 -0.48854013 1.6410419
H -0.19915392 0.37247798 1.5285638
H -1.54433112 -0.32408724 1.298356
end
basis spherical
 * library cc-pvdz
end
task scf gradient
================================================================================

 Output coordinates in angstroms (scale by  1.889725989 to convert to a.u.)

  No.       Tag          Charge          X              Y              Z
 ---- ---------------- ---------- -------------- -------------- --------------
    1 O                    8.0000     0.72656535     1.02514497    -0.55799452
    2 H                    1.0000     1.55140516     0.51827838    -0.74437803
    3 H                    1.0000     1.01122366     1.92996899    -0.38111407
    4 O                    8.0000    -0.79130977    -1.16748782     0.60446122
    5 H                    1.0000    -0.34974813    -0.30646971     0.49198312
    6 H                    1.0000    -1.69492533    -1.00303493     0.26177532

         Total SCF energy =   -152.058554815715

 Vector    2  Occ=2.000000D+00  E=-2.052069D+01

 Vector    3  Occ=2.000000D+00  E=-1.355851D+00

 Vector    4  Occ=2.000000D+00  E=-1.296487D+00

 Vector    5  Occ=2.000000D+00  E=-7.199716D-01

 Vector    6  Occ=2.000000D+00  E=-6.620254D-01

 Vector    7  Occ=2.000000D+00  E=-5.917160D-01

 Vector    8  Occ=2.000000D+00  E=-5.365346D-01

 Vector    9  Occ=2.000000D+00  E=-5.152515D-01

 Vector   10  Occ=2.000000D+00  E=-4.614752D-01

 Vector   11  Occ=0.000000D+00  E= 1.624168D-01

 Vector   12  Occ=0.000000D+00  E= 2.283493D-01

 Vector   13  Occ=0.000000D+00  E= 2.400738D-01

 Vector   14  Occ=0.000000D+00  E= 3.554442D-01

 Vector   15  Occ=0.000000D+00  E= 7.569342D-01

 Vector   16  Occ=0.000000D+00  E= 7.925473D-01

 Vector   17  Occ=0.000000D+00  E= 8.210145D-01

 Vector   18  Occ=0.000000D+00  E= 8.651313D-01

 Vector   19  Occ=0.000000D+00  E= 1.130005D+00

 Vector   20  Occ=0.000000D+00  E= 1.196081D+00

       Multipole analysis of the density wrt the origin
       ------------------------------------------------

     L   x y z        total         open         nuclear
     -   - - -        -----         ----         -------
     0   0 0 0     -0.000000      0.000000     20.000000

     1   1 0 0      0.573155      0.000000     -0.000000
     1   0 1 0      1.114015      0.000000     -0.000000
     1   0 0 1     -0.388743      0.000000      0.000000

     2   2 0 0     -4.293195      0.000000     55.912417
     2   1 1 0      1.584371      0.000000     63.966265
     2   1 0 1     -0.439838      0.000000    -32.946167
     2   0 2 0     -9.255114      0.000000     87.151809
     2   0 1 1      1.443700      0.000000    -41.983190

 Total times  cpu:        0.7s     wall:        0.7s
