============================== echo of input deck ==============================
echo
memory 1000 mb
geometry noautosym noautoz
O -0.82054445 0.61636011 -1.6312343
H -0.26682713 1.17302621 -1.05309865
H -0.36885969 -0.24447946 -1.58195952
O -0.64071556 -0.48854013 1.6410419
H -0.19915392 0.37247798 1.5285638
H -1.54433112 -0.32408724 1.298356
O 2.81159896 -0.10395953 -0.18689424
H 3.46294039 -0.4517338 0.43482057
H 2.1584952 -0.82915775 -0.30211113
O -2.88801599 -0.0663369 0.05761427
H -2.29024563 0.26724676 -0.65069518
H -3.66545029 0.50362404 0.03495814
end
basis spherical
 * library cc-pvdz
end
task scf gradient
================================================================================

 Output coordinates in angstroms (scale by  1.889725989 to convert to a.u.)

  No.       Tag          Charge          X              Y              Z
 ---- ---------------- ---------- -------------- -------------- --------------
    1 O                    8.0000    -0.44517324     0.61318248    -1.60006068
    2 H                    1.0000     0.10854408     1.16984858    -1.02192503
    3 H                    1.0000     0.00651152    -0.24765709    -1.55078590
    4 O                    8.0000    -0.26534435    -0.49171776     1.67221552
    5 H                    1.0000     0.17621729     0.36930035     1.55973742
    6 H                    1.0000    -1.16895991    -0.32726487     1.32952962
    7 O                    8.0000     3.18697017    -0.10713716    -0.15572062
    8 H                    1.0000     3.83831160    -0.45491143     0.46599419
    9 H                    1.0000     2.53386641    -0.83233538    -0.27093751
   10 O                    8.0000    -2.51264478    -0.06951453     0.08878789
   11 H                    1.0000    -1.91487442     0.26406913    -0.61952156
   12 H                    1.0000    -3.29007908     0.50044641     0.06613176

         Total SCF energy =   -304.123274989974

 Vector    5  Occ=2.000000D+00  E=-1.375658D+00

 Vector    6  Occ=2.000000D+00  E=-1.339333D+00

 Vector    7  Occ=2.000000D+00  E=-1.333558D+00

 Vector    8  Occ=2.000000D+00  E=-1.302773D+00

 Vector    9  Occ=2.000000D+00  E=-7.276999D-01

 Vector   10  Occ=2.000000D+00  E=-7.097634D-01

 Vector   11  Occ=2.000000D+00  E=-7.030223D-01

 Vector   12  Occ=2.000000D+00  E=-6.694990D-01

 Vector   13  Occ=2.000000D+00  E=-6.150403D-01

 Vector   14  Occ=2.000000D+00  E=-5.748663D-01

 Vector   15  Occ=2.000000D+00  E=-5.740611D-01

 Vector   16  Occ=2.000000D+00  E=-5.471687D-01

 Vector   17  Occ=2.000000D+00  E=-5.218378D-01

 Vector   18  Occ=2.000000D+00  E=-5.032271D-01

 Vector   19  Occ=2.000000D+00  E=-4.903238D-01

 Vector   20  Occ=2.000000D+00  E=-4.680799D-01

 Vector   21  Occ=0.000000D+00  E= 1.288693D-01

 Vector   22  Occ=0.000000D+00  E= 1.902710D-01

 Vector   23  Occ=0.000000D+00  E= 2.096774D-01

 Vector   24  Occ=0.000000D+00  E= 2.145013D-01

 Vector   25  Occ=0.000000D+00  E= 2.598898D-01

 Vector   26  Occ=0.000000D+00  E= 2.943460D-01

 Vector   27  Occ=0.000000D+00  E= 3.687194D-01

 Vector   28  Occ=0.000000D+00  E= 3.894345D-01

 Vector   29  Occ=0.000000D+00  E= 7.286853D-01

 Vector   30  Occ=0.000000D+00  E= 7.483040D-01

       Multipole analysis of the density wrt the origin
       ------------------------------------------------

     L   x y z        total         open         nuclear
     -   - - -        -----         ----         -------
     0   0 0 0     -0.000000      0.000000     40.000000

     1   1 0 0      0.255753      0.000000     -0.000000
     1   0 1 0      0.430943      0.000000     -0.000000
     1   0 0 1     -0.301327      0.000000      0.000000

     2   2 0 0    -14.483192      0.000000    610.522794
     2   1 1 0     -6.286222      0.000000    -28.241712
     2   1 0 1      2.554776      0.000000    -10.483654
     2   0 2 0    -17.446971      0.000000     28.447057
     2   0 1 1      3.543393      0.000000    -54.032039

 Total times  cpu:        3.5s     wall:        3.6s
