============================== echo of input deck ==============================
echo
memory 1000 mb
geometry noautosym noautoz
O 0.87715956 1.70409266 0.47858616
H 1.70199937 1.19722607 0.29220265
H 1.16181787 2.60891668 0.65546661
O -0.64071556 -0.48854013 1.6410419
H -0.19915392 0.37247798 1.5285638
H -1.54433112 -0.32408724 1.298356
O -2.88801599 -0.0663369 0.05761427
H -2.29024563 0.26724676 -0.65069518
H -3.66545029 0.50362404 0.03495814
end
basis spherical
 * library cc-pvdz
end
task scf gradient
================================================================================

 Output coordinates in angstroms (scale by  1.889725989 to convert to a.u.)

  No.       Tag          Charge          X              Y              Z
 ---- ---------------- ---------- -------------- -------------- --------------
    1 O                    8.0000     1.74542421     1.24345502    -0.20730686
    2 H                    1.0000     2.57026402     0.73658843    -0.39369037
    3 H                    1.0000     2.03008252     2.14827904    -0.03042641
    4 O                    8.0000     0.22754909    -0.94917777     0.95514888
    5 H                    1.0000     0.66911073    -0.08815966     0.84267078
    6 H                    1.0000    -0.67606647    -0.78472488     0.61246298
    7 O                    8.0000    -2.01975134    -0.52697454    -0.62827875
    8 H                    1.0000    -1.42198098    -0.19339088    -1.33658820
    9 H                    1.0000    -2.79718564     0.04298640    -0.65093488

         Total SCF energy =   -228.088958660010

 Vector    4  Occ=2.000000D+00  E=-1.353794D+00

 Vector    5  Occ=2.000000D+00  E=-1.350289D+00

 Vector    6  Occ=2.000000D+00  E=-1.266101D+00

 Vector    7  Occ=2.000000D+00  E=-7.178475D-01

 Vector    8  Occ=2.000000D+00  E=-7.148299D-01

 Vector    9  Occ=2.000000D+00  E=-6.456112D-01

 Vector   10  Occ=2.000000D+00  E=-5.948582D-01

 Vector   11  Occ=2.000000D+00  E=-5.714743D-01

 Vector   12  Occ=2.000000D+00  E=-5.288146D-01

 Vector   13  Occ=2.000000D+00  E=-5.129069D-01

 Vector   14  Occ=2.000000D+00  E=-4.877735D-01

 Vector   15  Occ=2.000000D+00  E=-4.308502D-01

 Vector   16  Occ=0.000000D+00  E= 1.595737D-01

 Vector   17  Occ=0.000000D+00  E= 1.816535D-01

 Vector   18  Occ=0.000000D+00  E= 2.406405D-01

 Vector   19  Occ=0.000000D+00  E= 2.497306D-01

 Vector   20  Occ=0.000000D+00  E= 3.243357D-01

 Vector   21  Occ=0.000000D+00  E= 4.205468D-01

 Vector   22  Occ=0.000000D+00  E= 7.520388D-01

 Vector   23  Occ=0.000000D+00  E= 7.595867D-01

 Vector   24  Occ=0.000000D+00  E= 8.122239D-01

 Vector   25  Occ=0.000000D+00  E= 8.248524D-01

       Multipole analysis of the density wrt the origin
       ------------------------------------------------

     L   x y z        total         open         nuclear
     -   - - -        -----         ----         -------
     0   0 0 0     -0.000000      0.000000     30.000000

     1   1 0 0      0.254638      0.000000      0.000000
     1   0 1 0      1.744613      0.000000      0.000000
     1   0 0 1     -1.003426      0.000000      0.000000

     2   2 0 0     -4.177528      0.000000    281.756912
     2   1 1 0      1.395053      0.000000    110.812058
     2   1 0 1      0.572482      0.000000     42.114562
     2   0 2 0    -14.185909      0.000000     98.629391
     2   0 1 1      1.513225      0.000000    -26.233473

 Total times  cpu:        1.9s     wall:        2.0s
