============================== echo of input deck ==============================
echo
memory 1000 mb
geometry noautosym noautoz
O -0.64071556 -0.48854013 1.6410419
H -0.19915392 0.37247798 1.5285638
H -1.54433112 -0.32408724 1.298356
O 0.57630762 -1.69154092 -0.42866929
H 0.43417462 -2.64420081 -0.48595869
H 0.08911917 -1.3894609 0.38589939
O -2.88801599 -0.0663369 0.05761427
H -2.29024563 0.26724676 -0.65069518
H -3.66545029 0.50362404 0.03495814
end
basis spherical
 * library cc-pvdz
end
task scf gradient
================================================================================

 Output coordinates in angstroms (scale by  1.889725989 to convert to a.u.)

  No.       Tag          Charge          X              Y              Z
 ---- ---------------- ---------- -------------- -------------- --------------
    1 O                    8.0000     0.38579373     0.21765133     1.23200795
    2 H                    1.0000     0.82735537     1.07866944     1.11952985
    3 H                    1.0000    -0.51782183     0.38210422     0.88932205
    4 O                    8.0000     1.60281691    -0.98534946    -0.83770324
    5 H                    1.0000     1.46068391    -1.93800935    -0.89499264
    6 H                    1.0000     1.11562846    -0.68326944    -0.02313456
    7 O                    8.0000    -1.86150670     0.63985456    -0.35141968
    8 H                    1.0000    -1.26373634     0.97343822    -1.05972913
    9 H                    1.0000    -2.63894100     1.20981550    -0.37407581

         Total SCF energy =   -228.091764032827

 Vector    4  Occ=2.000000D+00  E=-1.373305D+00

 Vector    5  Occ=2.000000D+00  E=-1.341569D+00

 Vector    6  Occ=2.000000D+00  E=-1.278704D+00

 Vector    7  Occ=2.000000D+00  E=-7.385445D-01

 Vector    8  Occ=2.000000D+00  E=-7.018709D-01

 Vector    9  Occ=2.000000D+00  E=-6.625967D-01

 Vector   10  Occ=2.000000D+00  E=-6.094797D-01

 Vector   11  Occ=2.000000D+00  E=-5.787327D-01

 Vector   12  Occ=2.000000D+00  E=-5.337496D-01

 Vector   13  Occ=2.000000D+00  E=-5.246477D-01

 Vector   14  Occ=2.000000D+00  E=-4.814250D-01

 Vector   15  Occ=2.000000D+00  E=-4.463806D-01

 Vector   16  Occ=0.000000D+00  E= 1.492176D-01

 Vector   17  Occ=0.000000D+00  E= 2.057555D-01

 Vector   18  Occ=0.000000D+00  E= 2.379762D-01

 Vector   19  Occ=0.000000D+00  E= 2.442088D-01

 Vector   20  Occ=0.000000D+00  E= 3.483810D-01

 Vector   21  Occ=0.000000D+00  E= 4.196424D-01

 Vector   22  Occ=0.000000D+00  E= 7.105943D-01

 Vector   23  Occ=0.000000D+00  E= 7.672874D-01

 Vector   24  Occ=0.000000D+00  E= 8.046179D-01

 Vector   25  Occ=0.000000D+00  E= 8.137245D-01

       Multipole analysis of the density wrt the origin
       ------------------------------------------------

     L   x y z        total         open         nuclear
     -   - - -        -----         ----         -------
     0   0 0 0     -0.000000      0.000000     30.000000

     1   1 0 0     -1.232314      0.000000     -0.000000
     1   0 1 0      1.080934      0.000000     -0.000000
     1   0 0 1     -0.196639      0.000000      0.000000

     2   2 0 0    -13.918068      0.000000    222.678887
     2   1 1 0     -2.405562      0.000000   -102.893049
     2   1 0 1      2.727457      0.000000     -0.880986
     2   0 2 0     -8.272127      0.000000     69.154019
     2   0 1 1     -0.249741      0.000000     31.294497

 Total times  cpu:        2.4s     wall:        2.4s
