============================== echo of input deck ==============================
echo
memory 1000 mb
geometry noautosym noautoz
O 0.87715956 1.70409266 0.47858616
H 1.70199937 1.19722607 0.29220265
H 1.16181787 2.60891668 0.65546661
O -0.82054445 0.61636011 -1.6312343
H -0.26682713 1.17302621 -1.05309865
H -0.36885969 -0.24447946 -1.58195952
O 0.57630762 -1.69154092 -0.42866929
H 0.43417462 -2.64420081 -0.48595869
H 0.08911917 -1.3894609 0.38589939
O -2.88801599 -0.0663369 0.05761427
H -2.29024563 0.26724676 -0.65069518
H -3.66545029 0.50362404 0.03495814
end
basis spherical
 * library cc-pvdz
end
task scf gradient
================================================================================

 Output coordinates in angstroms (scale by  1.889725989 to convert to a.u.)

  No.       Tag          Charge          X              Y              Z
 ---- ---------------- ---------- -------------- -------------- --------------
    1 O                    8.0000     1.40828500     1.55478021     0.84340642
    2 H                    1.0000     2.23312481     1.04791362     0.65702291
    3 H                    1.0000     1.69294331     2.45960423     1.02028687
    4 O                    8.0000    -0.28941901     0.46704766    -1.26641404
    5 H                    1.0000     0.26429831     1.02371376    -0.68827839
    6 H                    1.0000     0.16226575    -0.39379191    -1.21713926
    7 O                    8.0000     1.10743306    -1.84085337    -0.06384903
    8 H                    1.0000     0.96530006    -2.79351326    -0.12113843
    9 H                    1.0000     0.62024461    -1.53877335     0.75071965
   10 O                    8.0000    -2.35689055    -0.21564935     0.42243453
   11 H                    1.0000    -1.75912019     0.11793431    -0.28587492
   12 H                    1.0000    -3.13432485     0.35431159     0.39977840

         Total SCF energy =   -304.130265912287

 Vector    5  Occ=2.000000D+00  E=-1.361008D+00

 Vector    6  Occ=2.000000D+00  E=-1.347263D+00

 Vector    7  Occ=2.000000D+00  E=-1.316400D+00

 Vector    8  Occ=2.000000D+00  E=-1.279251D+00

 Vector    9  Occ=2.000000D+00  E=-7.251032D-01

 Vector   10  Occ=2.000000D+00  E=-7.117790D-01

 Vector   11  Occ=2.000000D+00  E=-6.771655D-01

 Vector   12  Occ=2.000000D+00  E=-6.563733D-01

 Vector   13  Occ=2.000000D+00  E=-6.009935D-01

 Vector   14  Occ=2.000000D+00  E=-5.844529D-01

 Vector   15  Occ=2.000000D+00  E=-5.583565D-01

 Vector   16  Occ=2.000000D+00  E=-5.247668D-01

 Vector   17  Occ=2.000000D+00  E=-5.179429D-01

 Vector   18  Occ=2.000000D+00  E=-5.071983D-01

 Vector   19  Occ=2.000000D+00  E=-4.669797D-01

 Vector   20  Occ=2.000000D+00  E=-4.450911D-01

 Vector   21  Occ=0.000000D+00  E= 1.497275D-01

 Vector   22  Occ=0.000000D+00  E= 1.875286D-01

 Vector   23  Occ=0.000000D+00  E= 2.297822D-01

 Vector   24  Occ=0.000000D+00  E= 2.423910D-01

 Vector   25  Occ=0.000000D+00  E= 2.614191D-01

 Vector   26  Occ=0.000000D+00  E= 3.012035D-01

 Vector   27  Occ=0.000000D+00  E= 3.702676D-01

 Vector   28  Occ=0.000000D+00  E= 4.252600D-01

 Vector   29  Occ=0.000000D+00  E= 7.251529D-01

 Vector   30  Occ=0.000000D+00  E= 7.390032D-01

       Multipole analysis of the density wrt the origin
       ------------------------------------------------

     L   x y z        total         open         nuclear
     -   - - -        -----         ----         -------
     0   0 0 0     -0.000000      0.000000     40.000000

     1   1 0 0      1.308323      0.000000      0.000000
     1   0 1 0      0.251963      0.000000     -0.000000
     1   0 0 1      0.495769      0.000000      0.000000

     2   2 0 0    -15.015793      0.000000    332.005632
     2   1 1 0      0.693078      0.000000     21.191075
     2   1 0 1      2.069694      0.000000     22.558993
     2   0 2 0     -9.761070      0.000000    240.074044
     2   0 1 1      1.668778      0.000000     29.404321

 Total times  cpu:        4.4s     wall:        4.4s
