============================== echo of input deck ==============================
echo
memory 1000 mb
geometry noautosym noautoz
O -0.64071556 -0.48854013 1.6410419
H -0.19915392 0.37247798 1.5285638
H -1.54433112 -0.32408724 1.298356
O 0.57630762 -1.69154092 -0.42866929
H 0.43417462 -2.64420081 -0.48595869
H 0.08911917 -1.3894609 0.38589939
end
basis spherical
 * library cc-pvdz
end
task scf gradient
================================================================================

 Output coordinates in angstroms (scale by  1.889725989 to convert to a.u.)

  No.       Tag          Charge          X              Y              Z
 ---- ---------------- ---------- -------------- -------------- --------------
    1 O                    8.0000    -0.55394282     0.58275584     1.01974983
    2 H                    1.0000    -0.11238118     1.44377395     0.90727173
    3 H                    1.0000    -1.45755838     0.74720873     0.67706393
    4 O                    8.0000     0.66308036    -0.62024495    -1.04996136
    5 H                    1.0000     0.52094736    -1.57290484    -1.10725076
    6 H                    1.0000     0.17589191    -0.31816493    -0.23539268

         Total SCF energy =   -152.055452924021

 Vector    2  Occ=2.000000D+00  E=-2.050839D+01

 Vector    3  Occ=2.000000D+00  E=-1.372716D+00

 Vector    4  Occ=2.000000D+00  E=-1.286538D+00

 Vector    5  Occ=2.000000D+00  E=-7.266660D-01

 Vector    6  Occ=2.000000D+00  E=-6.737905D-01

 Vector    7  Occ=2.000000D+00  E=-6.061556D-01

 Vector    8  Occ=2.000000D+00  E=-5.461633D-01

 Vector    9  Occ=2.000000D+00  E=-5.007005D-01

 Vector   10  Occ=2.000000D+00  E=-4.535230D-01

 Vector   11  Occ=0.000000D+00  E= 1.593662D-01

 Vector   12  Occ=0.000000D+00  E= 2.341337D-01

 Vector   13  Occ=0.000000D+00  E= 2.352136D-01

 Vector   14  Occ=0.000000D+00  E= 4.012531D-01

 Vector   15  Occ=0.000000D+00  E= 7.312159D-01

 Vector   16  Occ=0.000000D+00  E= 7.872039D-01

 Vector   17  Occ=0.000000D+00  E= 8.221827D-01

 Vector   18  Occ=0.000000D+00  E= 8.617883D-01

 Vector   19  Occ=0.000000D+00  E= 1.107556D+00

 Vector   20  Occ=0.000000D+00  E= 1.186534D+00

       Multipole analysis of the density wrt the origin
       ------------------------------------------------

     L   x y z        total         open         nuclear
     -   - - -        -----         ----         -------
     0   0 0 0     -0.000000      0.000000     20.000000

     1   1 0 0     -0.879026      0.000000      0.000000
     1   0 1 0      0.426552      0.000000      0.000000
     1   0 0 1      0.429956      0.000000      0.000000

     2   2 0 0     -8.656357      0.000000     30.038564
     2   1 1 0     -0.659639      0.000000    -28.566379
     2   1 0 1      1.156321      0.000000    -42.123483
     2   0 2 0     -4.721447      0.000000     39.326446
     2   0 1 1      1.520348      0.000000     48.553206

 Total times  cpu:        0.9s     wall:        0.9s
