============================== echo of input deck ==============================
echo
memory 1000 mb
geometry noautosym noautoz
O -0.82054445 0.61636011 -1.6312343
H -0.26682713 1.17302621 -1.05309865
H -0.36885969 -0.24447946 -1.58195952
O -0.64071556 -0.48854013 1.6410419
H -0.19915392 0.37247798 1.5285638
H -1.54433112 -0.32408724 1.298356
O 0.57630762 -1.69154092 -0.42866929
H 0.43417462 -2.64420081 -0.48595869
H 0.08911917 -1.3894609 0.38589939
O -2.88801599 -0.0663369 0.05761427
H -2.29024563 0.26724676 -0.65069518
H -3.66545029 0.50362404 0.03495814
end
basis spherical
 * library cc-pvdz
end
task scf gradient
================================================================================

 Output coordinates in angstroms (scale by  1.889725989 to convert to a.u.)

  No.       Tag          Charge          X              Y              Z
 ---- ---------------- ---------- -------------- -------------- --------------
    1 O                    8.0000     0.12933858     0.99951801    -1.54588645
    2 H                    1.0000     0.68305590     1.55618411    -0.96775080
    3 H                    1.0000     0.58102334     0.13867844    -1.49661167
    4 O                    8.0000     0.30916747    -0.10538223     1.72638975
    5 H                    1.0000     0.75072911     0.75563588     1.61391165
    6 H                    1.0000    -0.59444809     0.05907066     1.38370385
    7 O                    8.0000     1.52619065    -1.30838302    -0.34332144
    8 H                    1.0000     1.38405765    -2.26104291    -0.40061084
    9 H                    1.0000     1.03900220    -1.00630300     0.47124724
   10 O                    8.0000    -1.93813296     0.31682100     0.14296212
   11 H                    1.0000    -1.34036260     0.65040466    -0.56534733
   12 H                    1.0000    -2.71556726     0.88678194     0.12030599

         Total SCF energy =   -304.140907843987

 Vector    5  Occ=2.000000D+00  E=-1.359898D+00

 Vector    6  Occ=2.000000D+00  E=-1.350206D+00

 Vector    7  Occ=2.000000D+00  E=-1.333766D+00

 Vector    8  Occ=2.000000D+00  E=-1.311580D+00

 Vector    9  Occ=2.000000D+00  E=-7.198201D-01

 Vector   10  Occ=2.000000D+00  E=-7.096665D-01

 Vector   11  Occ=2.000000D+00  E=-7.013991D-01

 Vector   12  Occ=2.000000D+00  E=-6.917415D-01

 Vector   13  Occ=2.000000D+00  E=-6.124373D-01

 Vector   14  Occ=2.000000D+00  E=-5.854334D-01

 Vector   15  Occ=2.000000D+00  E=-5.732903D-01

 Vector   16  Occ=2.000000D+00  E=-5.532971D-01

 Vector   17  Occ=2.000000D+00  E=-5.081116D-01

 Vector   18  Occ=2.000000D+00  E=-4.985288D-01

 Vector   19  Occ=2.000000D+00  E=-4.960586D-01

 Vector   20  Occ=2.000000D+00  E=-4.787770D-01

 Vector   21  Occ=0.000000D+00  E= 1.473598D-01

 Vector   22  Occ=0.000000D+00  E= 2.048029D-01

 Vector   23  Occ=0.000000D+00  E= 2.158000D-01

 Vector   24  Occ=0.000000D+00  E= 2.469862D-01

 Vector   25  Occ=0.000000D+00  E= 3.208608D-01

 Vector   26  Occ=0.000000D+00  E= 3.520157D-01

 Vector   27  Occ=0.000000D+00  E= 3.857796D-01

 Vector   28  Occ=0.000000D+00  E= 4.138147D-01

 Vector   29  Occ=0.000000D+00  E= 7.181430D-01

 Vector   30  Occ=0.000000D+00  E= 7.299362D-01

       Multipole analysis of the density wrt the origin
       ------------------------------------------------

     L   x y z        total         open         nuclear
     -   - - -        -----         ----         -------
     0   0 0 0     -0.000000      0.000000     40.000000

     1   1 0 0     -0.275333      0.000000     -0.000000
     1   0 1 0      0.725758      0.000000      0.000000
     1   0 0 1      0.132130      0.000000      0.000000

     2   2 0 0    -18.255976      0.000000    226.657512
     2   1 1 0     -0.818909      0.000000    -92.464356
     2   1 0 1      0.257862      0.000000    -16.117343
     2   0 2 0    -13.500262      0.000000    117.591047
     2   0 1 1      2.894296      0.000000    -36.076254

 Total times  cpu:        5.7s     wall:        5.8s
