============================== echo of input deck ==============================
echo
memory 1000 mb
geometry noautosym noautoz
O -0.82054445 0.61636011 -1.6312343
H -0.26682713 1.17302621 -1.05309865
H -0.36885969 -0.24447946 -1.58195952
O -0.64071556 -0.48854013 1.6410419
H -0.19915392 0.37247798 1.5285638
H -1.54433112 -0.32408724 1.298356
O 0.57630762 -1.69154092 -0.42866929
H 0.43417462 -2.64420081 -0.48595869
H 0.08911917 -1.3894609 0.38589939
end
basis spherical
 * library cc-pvdz
end
task scf gradient
================================================================================

 Output coordinates in angstroms (scale by  1.889725989 to convert to a.u.)

  No.       Tag          Charge          X              Y              Z
 ---- ---------------- ---------- -------------- -------------- --------------
    1 O                    8.0000    -0.52269454     1.13524317    -1.52259793
    2 H                    1.0000     0.03102278     1.69190927    -0.94446228
    3 H                    1.0000    -0.07100978     0.27440360    -1.47332315
    4 O                    8.0000    -0.34286565     0.03034293     1.74967827
    5 H                    1.0000     0.09869599     0.89136104     1.63720017
    6 H                    1.0000    -1.24648121     0.19479582     1.40699237
    7 O                    8.0000     0.87415753    -1.17265786    -0.32003292
    8 H                    1.0000     0.73202453    -2.12531775    -0.37732232
    9 H                    1.0000     0.38696908    -0.87057784     0.49453576

         Total SCF energy =   -228.092974675982

 Vector    4  Occ=2.000000D+00  E=-1.381275D+00

 Vector    5  Occ=2.000000D+00  E=-1.320407D+00

 Vector    6  Occ=2.000000D+00  E=-1.311087D+00

 Vector    7  Occ=2.000000D+00  E=-7.347268D-01

 Vector    8  Occ=2.000000D+00  E=-7.012818D-01

 Vector    9  Occ=2.000000D+00  E=-6.719315D-01

 Vector   10  Occ=2.000000D+00  E=-6.182753D-01

 Vector   11  Occ=2.000000D+00  E=-5.718752D-01

 Vector   12  Occ=2.000000D+00  E=-5.525648D-01

 Vector   13  Occ=2.000000D+00  E=-5.190390D-01

 Vector   14  Occ=2.000000D+00  E=-4.843548D-01

 Vector   15  Occ=2.000000D+00  E=-4.743442D-01

 Vector   16  Occ=0.000000D+00  E= 1.418590D-01

 Vector   17  Occ=0.000000D+00  E= 2.113050D-01

 Vector   18  Occ=0.000000D+00  E= 2.186761D-01

 Vector   19  Occ=0.000000D+00  E= 2.589252D-01

 Vector   20  Occ=0.000000D+00  E= 3.403424D-01

 Vector   21  Occ=0.000000D+00  E= 3.939659D-01

 Vector   22  Occ=0.000000D+00  E= 7.230338D-01

 Vector   23  Occ=0.000000D+00  E= 7.510562D-01

 Vector   24  Occ=0.000000D+00  E= 7.864218D-01

 Vector   25  Occ=0.000000D+00  E= 8.205568D-01

       Multipole analysis of the density wrt the origin
       ------------------------------------------------

     L   x y z        total         open         nuclear
     -   - - -        -----         ----         -------
     0   0 0 0     -0.000000      0.000000     30.000000

     1   1 0 0     -0.147775      0.000000      0.000000
     1   0 1 0      0.026772      0.000000      0.000000
     1   0 0 1      0.900220      0.000000      0.000000

     2   2 0 0    -15.064002      0.000000     41.047273
     2   1 1 0      1.947521      0.000000    -53.728512
     2   1 0 1     -1.851225      0.000000     -8.114187
     2   0 2 0     -9.901988      0.000000    108.431080
     2   0 1 1      3.955837      0.000000    -36.776729

 Total times  cpu:        2.0s     wall:        2.1s
