============================== echo of input deck ==============================
echo
memory 1000 mb
geometry noautosym noautoz
O -0.64071556 -0.48854013 1.6410419
H -0.19915392 0.37247798 1.5285638
H -1.54433112 -0.32408724 1.298356
O 0.57630762 -1.69154092 -0.42866929
H 0.43417462 -2.64420081 -0.48595869
H 0.08911917 -1.3894609 0.38589939
O 2.81159896 -0.10395953 -0.18689424
H 3.46294039 -0.4517338 0.43482057
H 2.1584952 -0.82915775 -0.30211113
O -2.88801599 -0.0663369 0.05761427
H -2.29024563 0.26724676 -0.65069518
H -3.66545029 0.50362404 0.03495814
end
basis spherical
 * library cc-pvdz
end
task scf gradient
================================================================================

 Output coordinates in angstroms (scale by  1.889725989 to convert to a.u.)

  No.       Tag          Charge          X              Y              Z
 ---- ---------------- ---------- -------------- -------------- --------------
    1 O                    8.0000    -0.57368928     0.09391766     1.36832755
    2 H                    1.0000    -0.13212764     0.95493577     1.25584945
    3 H                    1.0000    -1.47730484     0.25837055     1.02564165
    4 O                    8.0000     0.64333390    -1.10908313    -0.70138364
    5 H                    1.0000     0.50120090    -2.06174302    -0.75867304
    6 H                    1.0000     0.15614545    -0.80700311     0.11318504
    7 O                    8.0000     2.87862524     0.47849826    -0.45960859
    8 H                    1.0000     3.52996667     0.13072399     0.16210622
    9 H                    1.0000     2.22552148    -0.24669996    -0.57482548
   10 O                    8.0000    -2.82098971     0.51612089    -0.21510008
   11 H                    1.0000    -2.22321935     0.84970455    -0.92340953
   12 H                    1.0000    -3.59842401     1.08608183    -0.23775621

         Total SCF energy =   -304.129667720010

 Vector    5  Occ=2.000000D+00  E=-1.376330D+00

 Vector    6  Occ=2.000000D+00  E=-1.348779D+00

 Vector    7  Occ=2.000000D+00  E=-1.316589D+00

 Vector    8  Occ=2.000000D+00  E=-1.281551D+00

 Vector    9  Occ=2.000000D+00  E=-7.416943D-01

 Vector   10  Occ=2.000000D+00  E=-7.076976D-01

 Vector   11  Occ=2.000000D+00  E=-6.947279D-01

 Vector   12  Occ=2.000000D+00  E=-6.576709D-01

 Vector   13  Occ=2.000000D+00  E=-6.138156D-01

 Vector   14  Occ=2.000000D+00  E=-5.866985D-01

 Vector   15  Occ=2.000000D+00  E=-5.586959D-01

 Vector   16  Occ=2.000000D+00  E=-5.318643D-01

 Vector   17  Occ=2.000000D+00  E=-5.220207D-01

 Vector   18  Occ=2.000000D+00  E=-4.965115D-01

 Vector   19  Occ=2.000000D+00  E=-4.754322D-01

 Vector   20  Occ=2.000000D+00  E=-4.465867D-01

 Vector   21  Occ=0.000000D+00  E= 1.460096D-01

 Vector   22  Occ=0.000000D+00  E= 1.931476D-01

 Vector   23  Occ=0.000000D+00  E= 2.277463D-01

 Vector   24  Occ=0.000000D+00  E= 2.329102D-01

 Vector   25  Occ=0.000000D+00  E= 2.467413D-01

 Vector   26  Occ=0.000000D+00  E= 3.434685D-01

 Vector   27  Occ=0.000000D+00  E= 3.894172D-01

 Vector   28  Occ=0.000000D+00  E= 4.326452D-01

 Vector   29  Occ=0.000000D+00  E= 7.058557D-01

 Vector   30  Occ=0.000000D+00  E= 7.530758D-01

       Multipole analysis of the density wrt the origin
       ------------------------------------------------

     L   x y z        total         open         nuclear
     -   - - -        -----         ----         -------
     0   0 0 0     -0.000000      0.000000     40.000000

     1   1 0 0     -1.491295      0.000000     -0.000000
     1   0 1 0      0.204631      0.000000     -0.000000
     1   0 0 1      0.125002      0.000000      0.000000

     2   2 0 0    -14.901037      0.000000    620.223000
     2   1 1 0     -8.184354      0.000000    -51.136316
     2   1 0 1      5.596259      0.000000    -55.215708
     2   0 2 0    -14.050363      0.000000     77.613638
     2   0 1 1      1.031947      0.000000     23.786711

 Total times  cpu:        3.6s     wall:        3.6s
