============================== echo of input deck ==============================
echo
memory 1000 mb
geometry noautosym noautoz
O 2.81159896 -0.10395953 -0.18689424
H 3.46294039 -0.4517338 0.43482057
H 2.1584952 -0.82915775 -0.30211113
end
basis spherical
 * library cc-pvdz
end
task scf gradient
================================================================================

 Output coordinates in angstroms (scale by  1.889725989 to convert to a.u.)

  No.       Tag          Charge          X              Y              Z
 ---- ---------------- ---------- -------------- -------------- --------------
    1 O                    8.0000     0.00017623     0.10729725    -0.05064979
    2 H                    1.0000     0.65151766    -0.24047702     0.57106502
    3 H                    1.0000    -0.65292753    -0.61790097    -0.16586668

         Total SCF energy =    -76.025299529185

 Vector    2  Occ=2.000000D+00  E=-1.328092D+00

 Vector    3  Occ=2.000000D+00  E=-6.912718D-01

 Vector    4  Occ=2.000000D+00  E=-5.625499D-01

 Vector    5  Occ=2.000000D+00  E=-4.918297D-01

 Vector    6  Occ=0.000000D+00  E= 1.827210D-01

 Vector    7  Occ=0.000000D+00  E= 2.537006D-01

 Vector    8  Occ=0.000000D+00  E= 7.781850D-01

 Vector    9  Occ=0.000000D+00  E= 8.378842D-01

 Vector   10  Occ=0.000000D+00  E= 1.164217D+00

 Vector   11  Occ=0.000000D+00  E= 1.200064D+00

 Vector   12  Occ=0.000000D+00  E= 1.254065D+00

 Vector   13  Occ=0.000000D+00  E= 1.451527D+00

 Vector   14  Occ=0.000000D+00  E= 1.470724D+00

 Vector   15  Occ=0.000000D+00  E= 1.674119D+00

       Multipole analysis of the density wrt the origin
       ------------------------------------------------

     L   x y z        total         open         nuclear
     -   - - -        -----         ----         -------
     0   0 0 0     -0.000000      0.000000     10.000000

     1   1 0 0      0.002636      0.000000     -0.000000
     1   0 1 0     -0.733722      0.000000     -0.000000
     1   0 0 1      0.349050      0.000000      0.000000

     2   2 0 0     -3.664572      0.000000      3.038225
     2   1 1 0      0.456101      0.000000      0.881770
     2   1 0 1      0.902299      0.000000      1.715134
     2   0 2 0     -4.417694      0.000000      1.898851
     2   0 1 1     -0.077367      0.000000     -0.279670

 Total times  cpu:        0.2s     wall:        0.2s
