============================== echo of input deck ==============================
echo
memory 1000 mb
geometry noautosym noautoz
O -0.64071556 -0.48854013 1.6410419
H -0.19915392 0.37247798 1.5285638
H -1.54433112 -0.32408724 1.298356
O 2.81159896 -0.10395953 -0.18689424
H 3.46294039 -0.4517338 0.43482057
H 2.1584952 -0.82915775 -0.30211113
end
basis spherical
 * library cc-pvdz
end
task scf gradient
================================================================================

 Output coordinates in angstroms (scale by  1.889725989 to convert to a.u.)

  No.       Tag          Charge          X              Y              Z
 ---- ---------------- ---------- -------------- -------------- --------------
    1 O                    8.0000    -1.70296645    -0.18991523     0.91140137
    2 H                    1.0000    -1.26140481     0.67110288     0.79892327
    3 H                    1.0000    -2.60658201    -0.02546234     0.56871547
    4 O                    8.0000     1.74934807     0.19466537    -0.91653477
    5 H                    1.0000     2.40068950    -0.15310890    -0.29481996
    6 H                    1.0000     1.09624431    -0.53053285    -1.03175166

         Total SCF energy =   -152.053600801345

 Vector    2  Occ=2.000000D+00  E=-2.055127D+01

 Vector    3  Occ=2.000000D+00  E=-1.329703D+00

 Vector    4  Occ=2.000000D+00  E=-1.326049D+00

 Vector    5  Occ=2.000000D+00  E=-6.897657D-01

 Vector    6  Occ=2.000000D+00  E=-6.875804D-01

 Vector    7  Occ=2.000000D+00  E=-5.680577D-01

 Vector    8  Occ=2.000000D+00  E=-5.611573D-01

 Vector    9  Occ=2.000000D+00  E=-4.946632D-01

 Vector   10  Occ=2.000000D+00  E=-4.896613D-01

 Vector   11  Occ=0.000000D+00  E= 1.661655D-01

 Vector   12  Occ=0.000000D+00  E= 2.026155D-01

 Vector   13  Occ=0.000000D+00  E= 2.588372D-01

 Vector   14  Occ=0.000000D+00  E= 2.662324D-01

 Vector   15  Occ=0.000000D+00  E= 7.640790D-01

 Vector   16  Occ=0.000000D+00  E= 7.859997D-01

 Vector   17  Occ=0.000000D+00  E= 8.326053D-01

 Vector   18  Occ=0.000000D+00  E= 8.620086D-01

 Vector   19  Occ=0.000000D+00  E= 1.162833D+00

 Vector   20  Occ=0.000000D+00  E= 1.165985D+00

       Multipole analysis of the density wrt the origin
       ------------------------------------------------

     L   x y z        total         open         nuclear
     -   - - -        -----         ----         -------
     0   0 0 0     -0.000000      0.000000     20.000000

     1   1 0 0     -0.313602      0.000000      0.000000
     1   0 1 0     -0.036695      0.000000      0.000000
     1   0 0 1      0.041989      0.000000     -0.000000

     2   2 0 0     -5.017534      0.000000    225.094828
     2   1 1 0     -3.709956      0.000000     12.792734
     2   1 0 1      2.985109      0.000000   -105.604894
     2   0 2 0     -9.051497      0.000000      4.812488
     2   0 1 1      2.272061      0.000000     -6.063153

 Total times  cpu:        0.7s     wall:        0.7s
