============================== echo of input deck ==============================
echo
memory 1000 mb
geometry noautosym noautoz
O 0.87715956 1.70409266 0.47858616
H 1.70199937 1.19722607 0.29220265
H 1.16181787 2.60891668 0.65546661
O -0.64071556 -0.48854013 1.6410419
H -0.19915392 0.37247798 1.5285638
H -1.54433112 -0.32408724 1.298356
O 2.81159896 -0.10395953 -0.18689424
H 3.46294039 -0.4517338 0.43482057
H 2.1584952 -0.82915775 -0.30211113
end
basis spherical
 * library cc-pvdz
end
task scf gradient
================================================================================

 Output coordinates in angstroms (scale by  1.889725989 to convert to a.u.)

  No.       Tag          Charge          X              Y              Z
 ---- ---------------- ---------- -------------- -------------- --------------
    1 O                    8.0000    -0.16037749     1.32187980    -0.16705281
    2 H                    1.0000     0.66446232     0.81501321    -0.35343632
    3 H                    1.0000     0.12428082     2.22670382     0.00982764
    4 O                    8.0000    -1.67825261    -0.87075299     0.99540293
    5 H                    1.0000    -1.23669097    -0.00973488     0.88292483
    6 H                    1.0000    -2.58186817    -0.70630010     0.65271703
    7 O                    8.0000     1.77406191    -0.48617239    -0.83253321
    8 H                    1.0000     2.42540334    -0.83394666    -0.21081840
    9 H                    1.0000     1.12095815    -1.21137061    -0.94775010

         Total SCF energy =   -228.096211081470

 Vector    4  Occ=2.000000D+00  E=-1.368094D+00

 Vector    5  Occ=2.000000D+00  E=-1.319560D+00

 Vector    6  Occ=2.000000D+00  E=-1.295124D+00

 Vector    7  Occ=2.000000D+00  E=-7.300234D-01

 Vector    8  Occ=2.000000D+00  E=-6.946055D-01

 Vector    9  Occ=2.000000D+00  E=-6.597293D-01

 Vector   10  Occ=2.000000D+00  E=-6.035109D-01

 Vector   11  Occ=2.000000D+00  E=-5.646943D-01

 Vector   12  Occ=2.000000D+00  E=-5.339594D-01

 Vector   13  Occ=2.000000D+00  E=-5.167619D-01

 Vector   14  Occ=2.000000D+00  E=-4.823949D-01

 Vector   15  Occ=2.000000D+00  E=-4.609542D-01

 Vector   16  Occ=0.000000D+00  E= 1.589734D-01

 Vector   17  Occ=0.000000D+00  E= 2.093366D-01

 Vector   18  Occ=0.000000D+00  E= 2.290729D-01

 Vector   19  Occ=0.000000D+00  E= 2.485234D-01

 Vector   20  Occ=0.000000D+00  E= 3.558264D-01

 Vector   21  Occ=0.000000D+00  E= 3.962164D-01

 Vector   22  Occ=0.000000D+00  E= 7.368373D-01

 Vector   23  Occ=0.000000D+00  E= 7.844641D-01

 Vector   24  Occ=0.000000D+00  E= 7.924443D-01

 Vector   25  Occ=0.000000D+00  E= 8.222877D-01

       Multipole analysis of the density wrt the origin
       ------------------------------------------------

     L   x y z        total         open         nuclear
     -   - - -        -----         ----         -------
     0   0 0 0      0.000000      0.000000     30.000000

     1   1 0 0      0.758113      0.000000     -0.000000
     1   0 1 0      0.172626      0.000000      0.000000
     1   0 0 1     -0.103034      0.000000      0.000000

     2   2 0 0     -9.464413      0.000000    227.505078
     2   1 1 0     -2.170720      0.000000      8.456611
     2   1 0 1      2.569633      0.000000   -105.525515
     2   0 2 0    -11.127506      0.000000    107.916926
     2   0 1 1      2.816389      0.000000    -17.406962

 Total times  cpu:        2.2s     wall:        2.2s
