============================== echo of input deck ==============================
echo
memory 1000 mb
geometry noautosym noautoz
O 0.87715956 1.70409266 0.47858616
H 1.70199937 1.19722607 0.29220265
H 1.16181787 2.60891668 0.65546661
O -0.82054445 0.61636011 -1.6312343
H -0.26682713 1.17302621 -1.05309865
H -0.36885969 -0.24447946 -1.58195952
O -2.88801599 -0.0663369 0.05761427
H -2.29024563 0.26724676 -0.65069518
H -3.66545029 0.50362404 0.03495814
end
basis spherical
 * library cc-pvdz
end
task scf gradient
================================================================================

 Output coordinates in angstroms (scale by  1.889725989 to convert to a.u.)

  No.       Tag          Charge          X              Y              Z
 ---- ---------------- ---------- -------------- -------------- --------------
    1 O                    8.0000     1.75645198     0.91947642     0.84736606
    2 H                    1.0000     2.58129179     0.41260983     0.66098255
    3 H                    1.0000     2.04111029     1.82430044     1.02424651
    4 O                    8.0000     0.05874797    -0.16825613    -1.26245440
    5 H                    1.0000     0.61246529     0.38840997    -0.68431875
    6 H                    1.0000     0.51043273    -1.02909570    -1.21317962
    7 O                    8.0000    -2.00872357    -0.85095314     0.42639417
    8 H                    1.0000    -1.41095321    -0.51736948    -0.28191528
    9 H                    1.0000    -2.78615787    -0.28099220     0.40373804

         Total SCF energy =   -228.091978063614

 Vector    4  Occ=2.000000D+00  E=-1.368134D+00

 Vector    5  Occ=2.000000D+00  E=-1.338088D+00

 Vector    6  Occ=2.000000D+00  E=-1.278829D+00

 Vector    7  Occ=2.000000D+00  E=-7.317003D-01

 Vector    8  Occ=2.000000D+00  E=-6.961031D-01

 Vector    9  Occ=2.000000D+00  E=-6.573597D-01

 Vector   10  Occ=2.000000D+00  E=-6.071165D-01

 Vector   11  Occ=2.000000D+00  E=-5.745068D-01

 Vector   12  Occ=2.000000D+00  E=-5.288176D-01

 Vector   13  Occ=2.000000D+00  E=-5.227996D-01

 Vector   14  Occ=2.000000D+00  E=-4.832536D-01

 Vector   15  Occ=2.000000D+00  E=-4.438163D-01

 Vector   16  Occ=0.000000D+00  E= 1.471645D-01

 Vector   17  Occ=0.000000D+00  E= 2.078853D-01

 Vector   18  Occ=0.000000D+00  E= 2.292399D-01

 Vector   19  Occ=0.000000D+00  E= 2.492106D-01

 Vector   20  Occ=0.000000D+00  E= 3.362798D-01

 Vector   21  Occ=0.000000D+00  E= 4.150367D-01

 Vector   22  Occ=0.000000D+00  E= 7.181024D-01

 Vector   23  Occ=0.000000D+00  E= 7.775544D-01

 Vector   24  Occ=0.000000D+00  E= 8.108042D-01

 Vector   25  Occ=0.000000D+00  E= 8.190502D-01

       Multipole analysis of the density wrt the origin
       ------------------------------------------------

     L   x y z        total         open         nuclear
     -   - - -        -----         ----         -------
     0   0 0 0     -0.000000      0.000000     30.000000

     1   1 0 0      1.684596      0.000000     -0.000000
     1   0 1 0      0.855831      0.000000     -0.000000
     1   0 0 1     -0.067092      0.000000      0.000000

     2   2 0 0     -6.139607      0.000000    279.281086
     2   1 1 0     -1.133199      0.000000    116.166114
     2   1 0 1      1.596830      0.000000     23.186125
     2   0 2 0    -11.915900      0.000000     63.699906
     2   0 1 1      2.940703      0.000000     29.232764

 Total times  cpu:        2.2s     wall:        2.2s
