============================== echo of input deck ==============================
echo
memory 1000 mb
geometry noautosym noautoz
O 0.87715956 1.70409266 0.47858616
H 1.70199937 1.19722607 0.29220265
H 1.16181787 2.60891668 0.65546661
O -2.88801599 -0.0663369 0.05761427
H -2.29024563 0.26724676 -0.65069518
H -3.66545029 0.50362404 0.03495814
end
basis spherical
 * library cc-pvdz
end
task scf gradient
================================================================================

 Output coordinates in angstroms (scale by  1.889725989 to convert to a.u.)

  No.       Tag          Charge          X              Y              Z
 ---- ---------------- ---------- -------------- -------------- --------------
    1 O                    8.0000     1.83609607     0.82013968     0.24750938
    2 H                    1.0000     2.66093588     0.31327309     0.06112587
    3 H                    1.0000     2.12075438     1.72496370     0.42438983
    4 O                    8.0000    -1.92907948    -0.95028988    -0.17346251
    5 H                    1.0000    -1.33130912    -0.61670622    -0.88177196
    6 H                    1.0000    -2.70651378    -0.38032894    -0.19611864

         Total SCF energy =   -152.050574748426

 Vector    2  Occ=2.000000D+00  E=-2.054001D+01

 Vector    3  Occ=2.000000D+00  E=-1.328656D+00

 Vector    4  Occ=2.000000D+00  E=-1.314481D+00

 Vector    5  Occ=2.000000D+00  E=-6.935525D-01

 Vector    6  Occ=2.000000D+00  E=-6.797233D-01

 Vector    7  Occ=2.000000D+00  E=-5.625779D-01

 Vector    8  Occ=2.000000D+00  E=-5.483131D-01

 Vector    9  Occ=2.000000D+00  E=-4.933044D-01

 Vector   10  Occ=2.000000D+00  E=-4.787001D-01

 Vector   11  Occ=0.000000D+00  E= 1.753764D-01

 Vector   12  Occ=0.000000D+00  E= 2.002858D-01

 Vector   13  Occ=0.000000D+00  E= 2.519628D-01

 Vector   14  Occ=0.000000D+00  E= 2.690740D-01

 Vector   15  Occ=0.000000D+00  E= 7.757511D-01

 Vector   16  Occ=0.000000D+00  E= 7.935052D-01

 Vector   17  Occ=0.000000D+00  E= 8.323215D-01

 Vector   18  Occ=0.000000D+00  E= 8.475268D-01

 Vector   19  Occ=0.000000D+00  E= 1.163091D+00

 Vector   20  Occ=0.000000D+00  E= 1.177349D+00

       Multipole analysis of the density wrt the origin
       ------------------------------------------------

     L   x y z        total         open         nuclear
     -   - - -        -----         ----         -------
     0   0 0 0     -0.000000      0.000000     20.000000

     1   1 0 0      0.653727      0.000000     -0.000000
     1   0 1 0      0.902530      0.000000     -0.000000
     1   0 0 1     -0.501211      0.000000     -0.000000

     2   2 0 0     -1.249096      0.000000    276.459483
     2   1 1 0     -0.697911      0.000000    118.039873
     2   1 0 1      1.261573      0.000000     32.425190
     2   0 2 0     -9.125419      0.000000     57.865726
     2   0 1 1      0.875900      0.000000     15.399306

 Total times  cpu:        0.5s     wall:        0.5s
