============================== echo of input deck ==============================
echo
memory 1000 mb
geometry noautosym noautoz
O 0.87715956 1.70409266 0.47858616
H 1.70199937 1.19722607 0.29220265
H 1.16181787 2.60891668 0.65546661
O -0.82054445 0.61636011 -1.6312343
H -0.26682713 1.17302621 -1.05309865
H -0.36885969 -0.24447946 -1.58195952
O 0.57630762 -1.69154092 -0.42866929
H 0.43417462 -2.64420081 -0.48595869
H 0.08911917 -1.3894609 0.38589939
end
basis spherical
 * library cc-pvdz
end
task scf gradient
================================================================================

 Output coordinates in angstroms (scale by  1.889725989 to convert to a.u.)

  No.       Tag          Charge          X              Y              Z
 ---- ---------------- ---------- -------------- -------------- --------------
    1 O                    8.0000     0.61666603     1.51301524     0.95985242
    2 H                    1.0000     1.44150584     1.00614865     0.77346891
    3 H                    1.0000     0.90132434     2.41783926     1.13673287
    4 O                    8.0000    -1.08103799     0.42528269    -1.14996805
    5 H                    1.0000    -0.52732067     0.98194879    -0.57183240
    6 H                    1.0000    -0.62935323    -0.43555688    -1.10069327
    7 O                    8.0000     0.31581409    -1.88261834     0.05259697
    8 H                    1.0000     0.17368109    -2.83527823    -0.00469243
    9 H                    1.0000    -0.17137437    -1.58053832     0.86716565

         Total SCF energy =   -228.090965121535

 Vector    4  Occ=2.000000D+00  E=-1.355207D+00

 Vector    5  Occ=2.000000D+00  E=-1.347921D+00

 Vector    6  Occ=2.000000D+00  E=-1.276422D+00

 Vector    7  Occ=2.000000D+00  E=-7.200614D-01

 Vector    8  Occ=2.000000D+00  E=-7.116386D-01

 Vector    9  Occ=2.000000D+00  E=-6.453557D-01

 Vector   10  Occ=2.000000D+00  E=-5.924922D-01

 Vector   11  Occ=2.000000D+00  E=-5.808630D-01

 Vector   12  Occ=2.000000D+00  E=-5.346797D-01

 Vector   13  Occ=2.000000D+00  E=-5.124162D-01

 Vector   14  Occ=2.000000D+00  E=-4.962261D-01

 Vector   15  Occ=2.000000D+00  E=-4.398021D-01

 Vector   16  Occ=0.000000D+00  E= 1.526795D-01

 Vector   17  Occ=0.000000D+00  E= 1.877268D-01

 Vector   18  Occ=0.000000D+00  E= 2.453824D-01

 Vector   19  Occ=0.000000D+00  E= 2.510376D-01

 Vector   20  Occ=0.000000D+00  E= 3.117378D-01

 Vector   21  Occ=0.000000D+00  E= 3.883647D-01

 Vector   22  Occ=0.000000D+00  E= 7.286277D-01

 Vector   23  Occ=0.000000D+00  E= 7.590064D-01

 Vector   24  Occ=0.000000D+00  E= 8.208478D-01

 Vector   25  Occ=0.000000D+00  E= 8.253987D-01

       Multipole analysis of the density wrt the origin
       ------------------------------------------------

     L   x y z        total         open         nuclear
     -   - - -        -----         ----         -------
     0   0 0 0     -0.000000      0.000000     30.000000

     1   1 0 0      1.174817      0.000000      0.000000
     1   0 1 0     -0.419678      0.000000     -0.000000
     1   0 0 1      1.131572      0.000000      0.000000

     2   2 0 0    -14.850654      0.000000     60.041307
     2   1 1 0      4.517925      0.000000      7.835419
     2   1 0 1     -1.211641      0.000000     63.557056
     2   0 2 0     -4.815757      0.000000    238.060636
     2   0 1 1      1.209158      0.000000     32.142439

 Total times  cpu:        2.0s     wall:        2.1s
