============================== echo of input deck ==============================
echo
memory 1000 mb
geometry noautosym noautoz
O 0.87715956 1.70409266 0.47858616
H 1.70199937 1.19722607 0.29220265
H 1.16181787 2.60891668 0.65546661
O 0.57630762 -1.69154092 -0.42866929
H 0.43417462 -2.64420081 -0.48595869
H 0.08911917 -1.3894609 0.38589939
O 2.81159896 -0.10395953 -0.18689424
H 3.46294039 -0.4517338 0.43482057
H 2.1584952 -0.82915775 -0.30211113
O -2.88801599 -0.0663369 0.05761427
H -2.29024563 0.26724676 -0.65069518
H -3.66545029 0.50362404 0.03495814
end
basis spherical
 * library cc-pvdz
end
task scf gradient
================================================================================

 Output coordinates in angstroms (scale by  1.889725989 to convert to a.u.)

  No.       Tag          Charge          X              Y              Z
 ---- ---------------- ---------- -------------- -------------- --------------
    1 O                    8.0000     0.52542826     1.75408009     0.48534422
    2 H                    1.0000     1.35026807     1.24721350     0.29896071
    3 H                    1.0000     0.81008657     2.65890411     0.66222467
    4 O                    8.0000     0.22457632    -1.64155349    -0.42191123
    5 H                    1.0000     0.08244332    -2.59421338    -0.47920063
    6 H                    1.0000    -0.26261213    -1.33947347     0.39265745
    7 O                    8.0000     2.45986766    -0.05397210    -0.18013618
    8 H                    1.0000     3.11120909    -0.40174637     0.44157863
    9 H                    1.0000     1.80676390    -0.77917032    -0.29535307
   10 O                    8.0000    -3.23974729    -0.01634947     0.06437233
   11 H                    1.0000    -2.64197693     0.31723419    -0.64393712
   12 H                    1.0000    -4.01718159     0.55361147     0.04171620

         Total SCF energy =   -304.122587656367

 Vector    5  Occ=2.000000D+00  E=-1.357953D+00

 Vector    6  Occ=2.000000D+00  E=-1.329581D+00

 Vector    7  Occ=2.000000D+00  E=-1.318506D+00

 Vector    8  Occ=2.000000D+00  E=-1.283322D+00

 Vector    9  Occ=2.000000D+00  E=-7.229019D-01

 Vector   10  Occ=2.000000D+00  E=-6.986378D-01

 Vector   11  Occ=2.000000D+00  E=-6.836519D-01

 Vector   12  Occ=2.000000D+00  E=-6.615475D-01

 Vector   13  Occ=2.000000D+00  E=-5.942216D-01

 Vector   14  Occ=2.000000D+00  E=-5.656767D-01

 Vector   15  Occ=2.000000D+00  E=-5.536530D-01

 Vector   16  Occ=2.000000D+00  E=-5.278801D-01

 Vector   17  Occ=2.000000D+00  E=-5.128307D-01

 Vector   18  Occ=2.000000D+00  E=-4.831503D-01

 Vector   19  Occ=2.000000D+00  E=-4.817954D-01

 Vector   20  Occ=2.000000D+00  E=-4.492209D-01

 Vector   21  Occ=0.000000D+00  E= 1.557952D-01

 Vector   22  Occ=0.000000D+00  E= 1.971659D-01

 Vector   23  Occ=0.000000D+00  E= 2.102024D-01

 Vector   24  Occ=0.000000D+00  E= 2.367412D-01

 Vector   25  Occ=0.000000D+00  E= 2.597273D-01

 Vector   26  Occ=0.000000D+00  E= 2.781168D-01

 Vector   27  Occ=0.000000D+00  E= 3.761098D-01

 Vector   28  Occ=0.000000D+00  E= 4.103231D-01

 Vector   29  Occ=0.000000D+00  E= 7.274394D-01

 Vector   30  Occ=0.000000D+00  E= 7.648688D-01

       Multipole analysis of the density wrt the origin
       ------------------------------------------------

     L   x y z        total         open         nuclear
     -   - - -        -----         ----         -------
     0   0 0 0     -0.000000      0.000000     40.000000

     1   1 0 0      0.159631      0.000000     -0.000000
     1   0 1 0     -0.644527      0.000000      0.000000
     1   0 0 1      0.274918      0.000000     -0.000000

     2   2 0 0    -13.624267      0.000000    619.952478
     2   1 1 0     -3.898057      0.000000      7.290933
     2   1 0 1      5.177458      0.000000     -2.713234
     2   0 2 0    -10.880282      0.000000    230.413909
     2   0 1 1     -0.490711      0.000000     54.077114

 Total times  cpu:        4.1s     wall:        4.2s
