============================== echo of input deck ==============================
echo
memory 1000 mb
geometry noautosym noautoz
O 0.87715956 1.70409266 0.47858616
H 1.70199937 1.19722607 0.29220265
H 1.16181787 2.60891668 0.65546661
O 2.81159896 -0.10395953 -0.18689424
H 3.46294039 -0.4517338 0.43482057
H 2.1584952 -0.82915775 -0.30211113
O -2.88801599 -0.0663369 0.05761427
H -2.29024563 0.26724676 -0.65069518
H -3.66545029 0.50362404 0.03495814
end
basis spherical
 * library cc-pvdz
end
task scf gradient
================================================================================

 Output coordinates in angstroms (scale by  1.889725989 to convert to a.u.)

  No.       Tag          Charge          X              Y              Z
 ---- ---------------- ---------- -------------- -------------- --------------
    1 O                    8.0000     0.57930966     1.18520960     0.36994979
    2 H                    1.0000     1.40414947     0.67834301     0.18356628
    3 H                    1.0000     0.86396797     2.09003362     0.54683024
    4 O                    8.0000     2.51374906    -0.62284259    -0.29553061
    5 H                    1.0000     3.16509049    -0.97061686     0.32618420
    6 H                    1.0000     1.86064530    -1.34804081    -0.41074750
    7 O                    8.0000    -3.18586590    -0.58521996    -0.05102210
    8 H                    1.0000    -2.58809554    -0.25163630    -0.75933155
    9 H                    1.0000    -3.96330020    -0.01525902    -0.07367823

         Total SCF energy =   -228.083762168603

 Vector    4  Occ=2.000000D+00  E=-1.366678D+00

 Vector    5  Occ=2.000000D+00  E=-1.312962D+00

 Vector    6  Occ=2.000000D+00  E=-1.291480D+00

 Vector    7  Occ=2.000000D+00  E=-7.280803D-01

 Vector    8  Occ=2.000000D+00  E=-6.782651D-01

 Vector    9  Occ=2.000000D+00  E=-6.724149D-01

 Vector   10  Occ=2.000000D+00  E=-5.979605D-01

 Vector   11  Occ=2.000000D+00  E=-5.471210D-01

 Vector   12  Occ=2.000000D+00  E=-5.412467D-01

 Vector   13  Occ=2.000000D+00  E=-5.077055D-01

 Vector   14  Occ=2.000000D+00  E=-4.771993D-01

 Vector   15  Occ=2.000000D+00  E=-4.565537D-01

 Vector   16  Occ=0.000000D+00  E= 1.610133D-01

 Vector   17  Occ=0.000000D+00  E= 1.962013D-01

 Vector   18  Occ=0.000000D+00  E= 2.311817D-01

 Vector   19  Occ=0.000000D+00  E= 2.377697D-01

 Vector   20  Occ=0.000000D+00  E= 2.724647D-01

 Vector   21  Occ=0.000000D+00  E= 3.930413D-01

 Vector   22  Occ=0.000000D+00  E= 7.394780D-01

 Vector   23  Occ=0.000000D+00  E= 7.887226D-01

 Vector   24  Occ=0.000000D+00  E= 8.073398D-01

 Vector   25  Occ=0.000000D+00  E= 8.212331D-01

       Multipole analysis of the density wrt the origin
       ------------------------------------------------

     L   x y z        total         open         nuclear
     -   - - -        -----         ----         -------
     0   0 0 0     -0.000000      0.000000     30.000000

     1   1 0 0      0.837040      0.000000     -0.000000
     1   0 1 0     -0.045026      0.000000      0.000000
     1   0 0 1     -0.210511      0.000000      0.000000

     2   2 0 0     -7.103877      0.000000    617.930062
     2   1 1 0     -5.890232      0.000000     20.614189
     2   1 0 1      5.120574      0.000000      1.169092
     2   0 2 0    -10.541687      0.000000     88.320817
     2   0 1 1      0.405480      0.000000     24.697083

 Total times  cpu:        1.6s     wall:        1.7s
