============================== echo of input deck ==============================
echo
memory 1000 mb
geometry noautosym noautoz
O 0.87715956 1.70409266 0.47858616
H 1.70199937 1.19722607 0.29220265
H 1.16181787 2.60891668 0.65546661
O -0.64071556 -0.48854013 1.6410419
H -0.19915392 0.37247798 1.5285638
H -1.54433112 -0.32408724 1.298356
O 2.81159896 -0.10395953 -0.18689424
H 3.46294039 -0.4517338 0.43482057
H 2.1584952 -0.82915775 -0.30211113
O -2.88801599 -0.0663369 0.05761427
H -2.29024563 0.26724676 -0.65069518
H -3.66545029 0.50362404 0.03495814
end
basis spherical
 * library cc-pvdz
end
task scf gradient
================================================================================

 Output coordinates in angstroms (scale by  1.889725989 to convert to a.u.)

  No.       Tag          Charge          X              Y              Z
 ---- ---------------- ---------- -------------- -------------- --------------
    1 O                    8.0000     0.82550237     1.41142862    -0.00177249
    2 H                    1.0000     1.65034218     0.90456203    -0.18815600
    3 H                    1.0000     1.11016068     2.31625264     0.17510796
    4 O                    8.0000    -0.69237275    -0.78120417     1.16068325
    5 H                    1.0000    -0.25081111     0.07981394     1.04820515
    6 H                    1.0000    -1.59598831    -0.61675128     0.81799735
    7 O                    8.0000     2.75994177    -0.39662357    -0.66725289
    8 H                    1.0000     3.41128320    -0.74439784    -0.04553808
    9 H                    1.0000     2.10683801    -1.12182179    -0.78246978
   10 O                    8.0000    -2.93967318    -0.35900094    -0.42274438
   11 H                    1.0000    -2.34190282    -0.02541728    -1.13105383
   12 H                    1.0000    -3.71710748     0.21096000    -0.44540051

         Total SCF energy =   -304.127206126531

 Vector    5  Occ=2.000000D+00  E=-1.365546D+00

 Vector    6  Occ=2.000000D+00  E=-1.348909D+00

 Vector    7  Occ=2.000000D+00  E=-1.317123D+00

 Vector    8  Occ=2.000000D+00  E=-1.265203D+00

 Vector    9  Occ=2.000000D+00  E=-7.275745D-01

 Vector   10  Occ=2.000000D+00  E=-7.135970D-01

 Vector   11  Occ=2.000000D+00  E=-6.922278D-01

 Vector   12  Occ=2.000000D+00  E=-6.433608D-01

 Vector   13  Occ=2.000000D+00  E=-6.020003D-01

 Vector   14  Occ=2.000000D+00  E=-5.791092D-01

 Vector   15  Occ=2.000000D+00  E=-5.570130D-01

 Vector   16  Occ=2.000000D+00  E=-5.263213D-01

 Vector   17  Occ=2.000000D+00  E=-5.141423D-01

 Vector   18  Occ=2.000000D+00  E=-4.903096D-01

 Vector   19  Occ=2.000000D+00  E=-4.776739D-01

 Vector   20  Occ=2.000000D+00  E=-4.304947D-01

 Vector   21  Occ=0.000000D+00  E= 1.600496D-01

 Vector   22  Occ=0.000000D+00  E= 1.785381D-01

 Vector   23  Occ=0.000000D+00  E= 2.165964D-01

 Vector   24  Occ=0.000000D+00  E= 2.416442D-01

 Vector   25  Occ=0.000000D+00  E= 2.549235D-01

 Vector   26  Occ=0.000000D+00  E= 3.287112D-01

 Vector   27  Occ=0.000000D+00  E= 3.889726D-01

 Vector   28  Occ=0.000000D+00  E= 4.282832D-01

 Vector   29  Occ=0.000000D+00  E= 7.392035D-01

 Vector   30  Occ=0.000000D+00  E= 7.541130D-01

       Multipole analysis of the density wrt the origin
       ------------------------------------------------

     L   x y z        total         open         nuclear
     -   - - -        -----         ----         -------
     0   0 0 0     -0.000000      0.000000     40.000000

     1   1 0 0      0.438252      0.000000     -0.000000
     1   0 1 0      0.805401      0.000000      0.000000
     1   0 0 1     -0.713902      0.000000     -0.000000

     2   2 0 0     -7.643831      0.000000    647.439376
     2   1 1 0     -5.521114      0.000000     45.476616
     2   1 0 1      4.963218      0.000000    -37.194420
     2   0 2 0    -16.520484      0.000000    112.619208
     2   0 1 1      2.390037      0.000000    -11.718502

 Total times  cpu:        3.9s     wall:        4.0s
