============================== echo of input deck ==============================
echo
memory 1000 mb
geometry noautosym noautoz
O 0.87715956 1.70409266 0.47858616
H 1.70199937 1.19722607 0.29220265
H 1.16181787 2.60891668 0.65546661
O -0.82054445 0.61636011 -1.6312343
H -0.26682713 1.17302621 -1.05309865
H -0.36885969 -0.24447946 -1.58195952
O 2.81159896 -0.10395953 -0.18689424
H 3.46294039 -0.4517338 0.43482057
H 2.1584952 -0.82915775 -0.30211113
end
basis spherical
 * library cc-pvdz
end
task scf gradient
================================================================================

 Output coordinates in angstroms (scale by  1.889725989 to convert to a.u.)

  No.       Tag          Charge          X              Y              Z
 ---- ---------------- ---------- -------------- -------------- --------------
    1 O                    8.0000    -0.14934973     0.99790120     0.88762011
    2 H                    1.0000     0.67549008     0.49103461     0.70123660
    3 H                    1.0000     0.13530858     1.90272522     1.06450056
    4 O                    8.0000    -1.84705374    -0.08983135    -1.22220035
    5 H                    1.0000    -1.29333642     0.46683475    -0.64406470
    6 H                    1.0000    -1.39536898    -0.95067092    -1.17292557
    7 O                    8.0000     1.78508967    -0.81015099     0.22213971
    8 H                    1.0000     2.43643110    -1.15792526     0.84385452
    9 H                    1.0000     1.13198591    -1.53534921     0.10692282

         Total SCF energy =   -228.091653598103

 Vector    4  Occ=2.000000D+00  E=-1.382947D+00

 Vector    5  Occ=2.000000D+00  E=-1.325829D+00

 Vector    6  Occ=2.000000D+00  E=-1.293749D+00

 Vector    7  Occ=2.000000D+00  E=-7.449584D-01

 Vector    8  Occ=2.000000D+00  E=-7.020388D-01

 Vector    9  Occ=2.000000D+00  E=-6.561782D-01

 Vector   10  Occ=2.000000D+00  E=-6.167387D-01

 Vector   11  Occ=2.000000D+00  E=-5.708428D-01

 Vector   12  Occ=2.000000D+00  E=-5.381150D-01

 Vector   13  Occ=2.000000D+00  E=-5.265352D-01

 Vector   14  Occ=2.000000D+00  E=-4.849174D-01

 Vector   15  Occ=2.000000D+00  E=-4.573368D-01

 Vector   16  Occ=0.000000D+00  E= 1.361877D-01

 Vector   17  Occ=0.000000D+00  E= 1.994166D-01

 Vector   18  Occ=0.000000D+00  E= 2.116098D-01

 Vector   19  Occ=0.000000D+00  E= 2.808935D-01

 Vector   20  Occ=0.000000D+00  E= 3.557489D-01

 Vector   21  Occ=0.000000D+00  E= 3.925214D-01

 Vector   22  Occ=0.000000D+00  E= 7.262630D-01

 Vector   23  Occ=0.000000D+00  E= 7.532484D-01

 Vector   24  Occ=0.000000D+00  E= 8.055166D-01

 Vector   25  Occ=0.000000D+00  E= 8.162319D-01

       Multipole analysis of the density wrt the origin
       ------------------------------------------------

     L   x y z        total         open         nuclear
     -   - - -        -----         ----         -------
     0   0 0 0     -0.000000      0.000000     30.000000

     1   1 0 0      1.762963      0.000000      0.000000
     1   0 1 0     -0.738776      0.000000     -0.000000
     1   0 0 1      0.882679      0.000000      0.000000

     2   2 0 0    -16.994256      0.000000    229.532378
     2   1 1 0     -0.959666      0.000000    -52.429414
     2   1 0 1      0.589944      0.000000     90.833395
     2   0 2 0     -7.278951      0.000000     78.431446
     2   0 1 1      0.506564      0.000000     30.595281

 Total times  cpu:        2.1s     wall:        2.1s
