============================== echo of input deck ==============================
echo
memory 1000 mb
geometry noautosym noautoz
O 0.87715956 1.70409266 0.47858616
H 1.70199937 1.19722607 0.29220265
H 1.16181787 2.60891668 0.65546661
O 0.57630762 -1.69154092 -0.42866929
H 0.43417462 -2.64420081 -0.48595869
H 0.08911917 -1.3894609 0.38589939
O 2.81159896 -0.10395953 -0.18689424
H 3.46294039 -0.4517338 0.43482057
H 2.1584952 -0.82915775 -0.30211113
end
basis spherical
 * library cc-pvdz
end
task scf gradient
================================================================================

 Output coordinates in angstroms (scale by  1.889725989 to convert to a.u.)

  No.       Tag          Charge          X              Y              Z
 ---- ---------------- ---------- -------------- -------------- --------------
    1 O                    8.0000    -0.56047630     1.77874842     0.48243615
    2 H                    1.0000     0.26436351     1.27188183     0.29605264
    3 H                    1.0000    -0.27581799     2.68357244     0.65931660
    4 O                    8.0000    -0.86132824    -1.61688516    -0.42481930
    5 H                    1.0000    -1.00346124    -2.56954505    -0.48210870
    6 H                    1.0000    -1.34851669    -1.31480514     0.38974938
    7 O                    8.0000     1.37396310    -0.02930377    -0.18304425
    8 H                    1.0000     2.02530453    -0.37707804     0.43867056
    9 H                    1.0000     0.72085934    -0.75450199    -0.29826114

         Total SCF energy =   -228.093134151498

 Vector    4  Occ=2.000000D+00  E=-1.362022D+00

 Vector    5  Occ=2.000000D+00  E=-1.330324D+00

 Vector    6  Occ=2.000000D+00  E=-1.281823D+00

 Vector    7  Occ=2.000000D+00  E=-7.265646D-01

 Vector    8  Occ=2.000000D+00  E=-6.999005D-01

 Vector    9  Occ=2.000000D+00  E=-6.604332D-01

 Vector   10  Occ=2.000000D+00  E=-5.968336D-01

 Vector   11  Occ=2.000000D+00  E=-5.667962D-01

 Vector   12  Occ=2.000000D+00  E=-5.282825D-01

 Vector   13  Occ=2.000000D+00  E=-5.150526D-01

 Vector   14  Occ=2.000000D+00  E=-4.819580D-01

 Vector   15  Occ=2.000000D+00  E=-4.475854D-01

 Vector   16  Occ=0.000000D+00  E= 1.574978D-01

 Vector   17  Occ=0.000000D+00  E= 2.079958D-01

 Vector   18  Occ=0.000000D+00  E= 2.335970D-01

 Vector   19  Occ=0.000000D+00  E= 2.506411D-01

 Vector   20  Occ=0.000000D+00  E= 3.745529D-01

 Vector   21  Occ=0.000000D+00  E= 4.101610D-01

 Vector   22  Occ=0.000000D+00  E= 7.268731D-01

 Vector   23  Occ=0.000000D+00  E= 7.653560D-01

 Vector   24  Occ=0.000000D+00  E= 8.079121D-01

 Vector   25  Occ=0.000000D+00  E= 8.341575D-01

       Multipole analysis of the density wrt the origin
       ------------------------------------------------

     L   x y z        total         open         nuclear
     -   - - -        -----         ----         -------
     0   0 0 0     -0.000000      0.000000     30.000000

     1   1 0 0      0.279452      0.000000     -0.000000
     1   0 1 0     -1.275319      0.000000      0.000000
     1   0 0 1      0.769578      0.000000      0.000000

     2   2 0 0    -12.757509      0.000000    111.214545
     2   1 1 0      3.071024      0.000000     19.582400
     2   1 0 1      1.228964      0.000000     -2.570468
     2   0 2 0     -6.499071      0.000000    228.887217
     2   0 1 1     -0.098321      0.000000     54.761887

 Total times  cpu:        2.2s     wall:        2.3s
