============================== echo of input deck ==============================
echo
memory 1000 mb
geometry noautosym noautoz
O 0.87715956 1.70409266 0.47858616
H 1.70199937 1.19722607 0.29220265
H 1.16181787 2.60891668 0.65546661
end
basis spherical
 * library cc-pvdz
end
task scf gradient
================================================================================

 Output coordinates in angstroms (scale by  1.889725989 to convert to a.u.)

  No.       Tag          Charge          X              Y              Z
 ---- ---------------- ---------- -------------- -------------- --------------
    1 O                    8.0000    -0.11094981    -0.03979574     0.00095031
    2 H                    1.0000     0.71389000    -0.54666233    -0.18543320
    3 H                    1.0000     0.17370850     0.86502828     0.17783076

         Total SCF energy =    -76.025010736239

 Vector    2  Occ=2.000000D+00  E=-1.326895D+00

 Vector    3  Occ=2.000000D+00  E=-6.918133D-01

 Vector    4  Occ=2.000000D+00  E=-5.608495D-01

 Vector    5  Occ=2.000000D+00  E=-4.914710D-01

 Vector    6  Occ=0.000000D+00  E= 1.825604D-01

 Vector    7  Occ=0.000000D+00  E= 2.534266D-01

 Vector    8  Occ=0.000000D+00  E= 7.791112D-01

 Vector    9  Occ=0.000000D+00  E= 8.340438D-01

 Vector   10  Occ=0.000000D+00  E= 1.163837D+00

 Vector   11  Occ=0.000000D+00  E= 1.200182D+00

 Vector   12  Occ=0.000000D+00  E= 1.253469D+00

 Vector   13  Occ=0.000000D+00  E= 1.458096D+00

 Vector   14  Occ=0.000000D+00  E= 1.468237D+00

 Vector   15  Occ=0.000000D+00  E= 1.677622D+00

       Multipole analysis of the density wrt the origin
       ------------------------------------------------

     L   x y z        total         open         nuclear
     -   - - -        -----         ----         -------
     0   0 0 0     -0.000000      0.000000     10.000000

     1   1 0 0      0.759443      0.000000     -0.000000
     1   0 1 0      0.277987      0.000000      0.000000
     1   0 0 1     -0.005256      0.000000     -0.000000

     2   2 0 0     -4.234440      0.000000      2.279383
     2   1 1 0     -0.435195      0.000000     -0.730895
     2   1 0 1     -0.188223      0.000000     -0.365433
     2   0 2 0     -3.290306      0.000000      3.784554
     2   0 1 1      0.478725      0.000000      0.910248

 Total times  cpu:        0.2s     wall:        0.3s
