============================== echo of input deck ==============================
echo
memory 1000 mb
geometry noautosym noautoz
O 0.87715956 1.70409266 0.47858616
H 1.70199937 1.19722607 0.29220265
H 1.16181787 2.60891668 0.65546661
O -0.64071556 -0.48854013 1.6410419
H -0.19915392 0.37247798 1.5285638
H -1.54433112 -0.32408724 1.298356
O 0.57630762 -1.69154092 -0.42866929
H 0.43417462 -2.64420081 -0.48595869
H 0.08911917 -1.3894609 0.38589939
O 2.81159896 -0.10395953 -0.18689424
H 3.46294039 -0.4517338 0.43482057
H 2.1584952 -0.82915775 -0.30211113
end
basis spherical
 * library cc-pvdz
end
task scf gradient
================================================================================

 Output coordinates in angstroms (scale by  1.889725989 to convert to a.u.)

  No.       Tag          Charge          X              Y              Z
 ---- ---------------- ---------- -------------- -------------- --------------
    1 O                    8.0000    -0.02933710     1.85658274     0.08259227
    2 H                    1.0000     0.79550271     1.34971615    -0.10379124
    3 H                    1.0000     0.25532121     2.76140676     0.25947272
    4 O                    8.0000    -1.54721222    -0.33605005     1.24504801
    5 H                    1.0000    -1.10565058     0.52496806     1.13256991
    6 H                    1.0000    -2.45082778    -0.17159716     0.90236211
    7 O                    8.0000    -0.33018904    -1.53905084    -0.82466318
    8 H                    1.0000    -0.47232204    -2.49171073    -0.88195258
    9 H                    1.0000    -0.81737749    -1.23697082    -0.01009450
   10 O                    8.0000     1.90510230     0.04853055    -0.58288813
   11 H                    1.0000     2.55644373    -0.29924372     0.03882668
   12 H                    1.0000     1.25199854    -0.67666767    -0.69810502

         Total SCF energy =   -304.143125451355

 Vector    5  Occ=2.000000D+00  E=-1.349981D+00

 Vector    6  Occ=2.000000D+00  E=-1.333296D+00

 Vector    7  Occ=2.000000D+00  E=-1.318815D+00

 Vector    8  Occ=2.000000D+00  E=-1.310018D+00

 Vector    9  Occ=2.000000D+00  E=-7.107336D-01

 Vector   10  Occ=2.000000D+00  E=-7.014963D-01

 Vector   11  Occ=2.000000D+00  E=-6.931576D-01

 Vector   12  Occ=2.000000D+00  E=-6.828712D-01

 Vector   13  Occ=2.000000D+00  E=-5.995840D-01

 Vector   14  Occ=2.000000D+00  E=-5.737580D-01

 Vector   15  Occ=2.000000D+00  E=-5.636635D-01

 Vector   16  Occ=2.000000D+00  E=-5.382230D-01

 Vector   17  Occ=2.000000D+00  E=-4.965844D-01

 Vector   18  Occ=2.000000D+00  E=-4.871902D-01

 Vector   19  Occ=2.000000D+00  E=-4.830850D-01

 Vector   20  Occ=2.000000D+00  E=-4.789679D-01

 Vector   21  Occ=0.000000D+00  E= 1.697052D-01

 Vector   22  Occ=0.000000D+00  E= 2.072582D-01

 Vector   23  Occ=0.000000D+00  E= 2.144536D-01

 Vector   24  Occ=0.000000D+00  E= 2.358833D-01

 Vector   25  Occ=0.000000D+00  E= 3.380179D-01

 Vector   26  Occ=0.000000D+00  E= 3.767443D-01

 Vector   27  Occ=0.000000D+00  E= 4.033478D-01

 Vector   28  Occ=0.000000D+00  E= 4.205044D-01

 Vector   29  Occ=0.000000D+00  E= 7.349566D-01

 Vector   30  Occ=0.000000D+00  E= 7.493343D-01

       Multipole analysis of the density wrt the origin
       ------------------------------------------------

     L   x y z        total         open         nuclear
     -   - - -        -----         ----         -------
     0   0 0 0     -0.000000      0.000000     40.000000

     1   1 0 0     -0.056181      0.000000     -0.000000
     1   0 1 0     -0.246963      0.000000      0.000000
     1   0 0 1      0.607328      0.000000      0.000000

     2   2 0 0    -13.624721      0.000000    235.641891
     2   1 1 0      0.246160      0.000000     38.294332
     2   1 0 1      2.327386      0.000000    -92.724741
     2   0 2 0    -11.885393      0.000000    233.851781
     2   0 1 1      2.306266      0.000000     41.045020

 Total times  cpu:        4.3s     wall:        4.4s
