============================== echo of input deck ==============================
echo
memory 1000 mb
geometry noautosym noautoz
O 0.87715956 1.70409266 0.47858616
H 1.70199937 1.19722607 0.29220265
H 1.16181787 2.60891668 0.65546661
O 2.81159896 -0.10395953 -0.18689424
H 3.46294039 -0.4517338 0.43482057
H 2.1584952 -0.82915775 -0.30211113
end
basis spherical
 * library cc-pvdz
end
task scf gradient
================================================================================

 Output coordinates in angstroms (scale by  1.889725989 to convert to a.u.)

  No.       Tag          Charge          X              Y              Z
 ---- ---------------- ---------- -------------- -------------- --------------
    1 O                    8.0000    -1.02260649     0.93777685     0.30789046
    2 H                    1.0000    -0.19776668     0.43091026     0.12150695
    3 H                    1.0000    -0.73794818     1.84260087     0.48477091
    4 O                    8.0000     0.91183291    -0.87027534    -0.35758994
    5 H                    1.0000     1.56317434    -1.21804961     0.26412487
    6 H                    1.0000     0.25872915    -1.59547356    -0.47280683

         Total SCF energy =   -152.057614766545

 Vector    2  Occ=2.000000D+00  E=-2.050983D+01

 Vector    3  Occ=2.000000D+00  E=-1.366813D+00

 Vector    4  Occ=2.000000D+00  E=-1.289719D+00

 Vector    5  Occ=2.000000D+00  E=-7.281397D-01

 Vector    6  Occ=2.000000D+00  E=-6.710324D-01

 Vector    7  Occ=2.000000D+00  E=-5.976443D-01

 Vector    8  Occ=2.000000D+00  E=-5.404682D-01

 Vector    9  Occ=2.000000D+00  E=-5.068275D-01

 Vector   10  Occ=2.000000D+00  E=-4.546858D-01

 Vector   11  Occ=0.000000D+00  E= 1.617248D-01

 Vector   12  Occ=0.000000D+00  E= 2.328537D-01

 Vector   13  Occ=0.000000D+00  E= 2.378224D-01

 Vector   14  Occ=0.000000D+00  E= 3.927042D-01

 Vector   15  Occ=0.000000D+00  E= 7.395905D-01

 Vector   16  Occ=0.000000D+00  E= 8.028909D-01

 Vector   17  Occ=0.000000D+00  E= 8.208443D-01

 Vector   18  Occ=0.000000D+00  E= 8.624282D-01

 Vector   19  Occ=0.000000D+00  E= 1.119748D+00

 Vector   20  Occ=0.000000D+00  E= 1.178939D+00

       Multipole analysis of the density wrt the origin
       ------------------------------------------------

     L   x y z        total         open         nuclear
     -   - - -        -----         ----         -------
     0   0 0 0     -0.000000      0.000000     20.000000

     1   1 0 0      0.940390      0.000000      0.000000
     1   0 1 0     -0.671359      0.000000     -0.000000
     1   0 0 1      0.283934      0.000000     -0.000000

     2   2 0 0    -10.692205      0.000000     64.677118
     2   1 1 0     -0.180386      0.000000    -63.500531
     2   1 0 1      1.867126      0.000000    -18.635692
     2   0 2 0     -4.039114      0.000000     73.937026
     2   0 1 1      0.275101      0.000000     22.060984

 Total times  cpu:        0.8s     wall:        0.9s
