============================== echo of input deck ==============================
echo
memory 1000 mb
geometry noautosym noautoz
O 0.87715956 1.70409266 0.47858616
H 1.70199937 1.19722607 0.29220265
H 1.16181787 2.60891668 0.65546661
O -0.82054445 0.61636011 -1.6312343
H -0.26682713 1.17302621 -1.05309865
H -0.36885969 -0.24447946 -1.58195952
O 2.81159896 -0.10395953 -0.18689424
H 3.46294039 -0.4517338 0.43482057
H 2.1584952 -0.82915775 -0.30211113
O -2.88801599 -0.0663369 0.05761427
H -2.29024563 0.26724676 -0.65069518
H -3.66545029 0.50362404 0.03495814
end
basis spherical
 * library cc-pvdz
end
task scf gradient
================================================================================

 Output coordinates in angstroms (scale by  1.889725989 to convert to a.u.)

  No.       Tag          Charge          X              Y              Z
 ---- ---------------- ---------- -------------- -------------- --------------
    1 O                    8.0000     0.83377319     1.16844467     0.78923219
    2 H                    1.0000     1.65861300     0.66157808     0.60284868
    3 H                    1.0000     1.11843150     2.07326869     0.96611264
    4 O                    8.0000    -0.86393082     0.08071212    -1.32058827
    5 H                    1.0000    -0.31021350     0.63737822    -0.74245262
    6 H                    1.0000    -0.41224606    -0.78012745    -1.27131349
    7 O                    8.0000     2.76821259    -0.63960752     0.12375179
    8 H                    1.0000     3.41955402    -0.98738179     0.74546660
    9 H                    1.0000     2.11510883    -1.36480574     0.00853490
   10 O                    8.0000    -2.93140236    -0.60198489     0.36826030
   11 H                    1.0000    -2.33363200    -0.26840123    -0.34004915
   12 H                    1.0000    -3.70883666    -0.03202395     0.34560417

         Total SCF energy =   -304.126896423729

 Vector    5  Occ=2.000000D+00  E=-1.385534D+00

 Vector    6  Occ=2.000000D+00  E=-1.337027D+00

 Vector    7  Occ=2.000000D+00  E=-1.327234D+00

 Vector    8  Occ=2.000000D+00  E=-1.276750D+00

 Vector    9  Occ=2.000000D+00  E=-7.477532D-01

 Vector   10  Occ=2.000000D+00  E=-7.072795D-01

 Vector   11  Occ=2.000000D+00  E=-6.898767D-01

 Vector   12  Occ=2.000000D+00  E=-6.550324D-01

 Vector   13  Occ=2.000000D+00  E=-6.206235D-01

 Vector   14  Occ=2.000000D+00  E=-5.856302D-01

 Vector   15  Occ=2.000000D+00  E=-5.618976D-01

 Vector   16  Occ=2.000000D+00  E=-5.340348D-01

 Vector   17  Occ=2.000000D+00  E=-5.212324D-01

 Vector   18  Occ=2.000000D+00  E=-4.930115D-01

 Vector   19  Occ=2.000000D+00  E=-4.789257D-01

 Vector   20  Occ=2.000000D+00  E=-4.418297D-01

 Vector   21  Occ=0.000000D+00  E= 1.312496D-01

 Vector   22  Occ=0.000000D+00  E= 1.925367D-01

 Vector   23  Occ=0.000000D+00  E= 2.062737D-01

 Vector   24  Occ=0.000000D+00  E= 2.355172D-01

 Vector   25  Occ=0.000000D+00  E= 2.776266D-01

 Vector   26  Occ=0.000000D+00  E= 3.417513D-01

 Vector   27  Occ=0.000000D+00  E= 3.821845D-01

 Vector   28  Occ=0.000000D+00  E= 4.219616D-01

 Vector   29  Occ=0.000000D+00  E= 7.221724D-01

 Vector   30  Occ=0.000000D+00  E= 7.334861D-01

       Multipole analysis of the density wrt the origin
       ------------------------------------------------

     L   x y z        total         open         nuclear
     -   - - -        -----         ----         -------
     0   0 0 0     -0.000000      0.000000     40.000000

     1   1 0 0      1.904311      0.000000     -0.000000
     1   0 1 0     -0.070503      0.000000     -0.000000
     1   0 0 1      0.247280      0.000000      0.000000

     2   2 0 0    -14.344353      0.000000    647.140445
     2   1 1 0     -5.883815      0.000000     18.607471
     2   1 0 1      4.380535      0.000000     47.887007
     2   0 2 0    -13.687004      0.000000     92.161130
     2   0 1 1      1.668254      0.000000     22.750804

 Total times  cpu:        4.1s     wall:        4.2s
