============================== echo of input deck ==============================
echo
memory 1000 mb
geometry noautosym noautoz
O -0.64071556 -0.48854013 1.6410419
H -0.19915392 0.37247798 1.5285638
H -1.54433112 -0.32408724 1.298356
O 0.57630762 -1.69154092 -0.42866929
H 0.43417462 -2.64420081 -0.48595869
H 0.08911917 -1.3894609 0.38589939
O 2.81159896 -0.10395953 -0.18689424
H 3.46294039 -0.4517338 0.43482057
H 2.1584952 -0.82915775 -0.30211113
end
basis spherical
 * library cc-pvdz
end
task scf gradient
================================================================================

 Output coordinates in angstroms (scale by  1.889725989 to convert to a.u.)

  No.       Tag          Charge          X              Y              Z
 ---- ---------------- ---------- -------------- -------------- --------------
    1 O                    8.0000    -1.52000798     0.29607611     1.27226200
    2 H                    1.0000    -1.07844634     1.15709422     1.15978390
    3 H                    1.0000    -2.42362354     0.46052900     0.92957610
    4 O                    8.0000    -0.30298480    -0.90692468    -0.79744919
    5 H                    1.0000    -0.44511780    -1.85958457    -0.85473859
    6 H                    1.0000    -0.79017325    -0.60484466     0.01711949
    7 O                    8.0000     1.93230654     0.68065671    -0.55567414
    8 H                    1.0000     2.58364797     0.33288244     0.06604067
    9 H                    1.0000     1.27920278    -0.04454151    -0.67089103

         Total SCF energy =   -228.092610543996

 Vector    4  Occ=2.000000D+00  E=-1.379373D+00

 Vector    5  Occ=2.000000D+00  E=-1.325103D+00

 Vector    6  Occ=2.000000D+00  E=-1.285032D+00

 Vector    7  Occ=2.000000D+00  E=-7.324877D-01

 Vector    8  Occ=2.000000D+00  E=-7.050658D-01

 Vector    9  Occ=2.000000D+00  E=-6.619858D-01

 Vector   10  Occ=2.000000D+00  E=-6.149605D-01

 Vector   11  Occ=2.000000D+00  E=-5.695137D-01

 Vector   12  Occ=2.000000D+00  E=-5.302011D-01

 Vector   13  Occ=2.000000D+00  E=-5.177350D-01

 Vector   14  Occ=2.000000D+00  E=-4.820686D-01

 Vector   15  Occ=2.000000D+00  E=-4.499046D-01

 Vector   16  Occ=0.000000D+00  E= 1.525216D-01

 Vector   17  Occ=0.000000D+00  E= 2.083812D-01

 Vector   18  Occ=0.000000D+00  E= 2.261737D-01

 Vector   19  Occ=0.000000D+00  E= 2.490006D-01

 Vector   20  Occ=0.000000D+00  E= 3.781038D-01

 Vector   21  Occ=0.000000D+00  E= 4.173079D-01

 Vector   22  Occ=0.000000D+00  E= 7.263304D-01

 Vector   23  Occ=0.000000D+00  E= 7.606311D-01

 Vector   24  Occ=0.000000D+00  E= 8.061444D-01

 Vector   25  Occ=0.000000D+00  E= 8.156238D-01

       Multipole analysis of the density wrt the origin
       ------------------------------------------------

     L   x y z        total         open         nuclear
     -   - - -        -----         ----         -------
     0   0 0 0     -0.000000      0.000000     30.000000

     1   1 0 0     -1.129226      0.000000      0.000000
     1   0 1 0     -0.452962      0.000000     -0.000000
     1   0 0 1      0.750203      0.000000      0.000000

     2   2 0 0    -10.015129      0.000000    233.045367
     2   1 1 0     -3.545077      0.000000     31.656045
     2   1 0 1      2.221947      0.000000    -92.676563
     2   0 2 0    -11.139738      0.000000     58.834629
     2   0 1 1      2.728685      0.000000     32.762949

 Total times  cpu:        2.2s     wall:        2.3s
