============================== echo of input deck ==============================
echo
memory 1000 mb
geometry noautosym noautoz
O -0.82054445 0.61636011 -1.6312343
H -0.26682713 1.17302621 -1.05309865
H -0.36885969 -0.24447946 -1.58195952
end
basis spherical
 * library cc-pvdz
end
task scf gradient
================================================================================

 Output coordinates in angstroms (scale by  1.889725989 to convert to a.u.)

  No.       Tag          Charge          X              Y              Z
 ---- ---------------- ---------- -------------- -------------- --------------
    1 O                    8.0000    -0.10054021     0.03041735    -0.06274104
    2 H                    1.0000     0.45317711     0.58708345     0.51539461
    3 H                    1.0000     0.35114455    -0.83042222    -0.01346626

         Total SCF energy =    -76.025404834321

 Vector    2  Occ=2.000000D+00  E=-1.330061D+00

 Vector    3  Occ=2.000000D+00  E=-6.860003D-01

 Vector    4  Occ=2.000000D+00  E=-5.681522D-01

 Vector    5  Occ=2.000000D+00  E=-4.928336D-01

 Vector    6  Occ=0.000000D+00  E= 1.822183D-01

 Vector    7  Occ=0.000000D+00  E= 2.538978D-01

 Vector    8  Occ=0.000000D+00  E= 7.698390D-01

 Vector    9  Occ=0.000000D+00  E= 8.487076D-01

 Vector   10  Occ=0.000000D+00  E= 1.166602D+00

 Vector   11  Occ=0.000000D+00  E= 1.199357D+00

 Vector   12  Occ=0.000000D+00  E= 1.256910D+00

 Vector   13  Occ=0.000000D+00  E= 1.425762D+00

 Vector   14  Occ=0.000000D+00  E= 1.479582D+00

 Vector   15  Occ=0.000000D+00  E= 1.658951D+00

       Multipole analysis of the density wrt the origin
       ------------------------------------------------

     L   x y z        total         open         nuclear
     -   - - -        -----         ----         -------
     0   0 0 0     -0.000000      0.000000     10.000000

     1   1 0 0      0.681219      0.000000      0.000000
     1   0 1 0     -0.206531      0.000000     -0.000000
     1   0 0 1      0.424967      0.000000      0.000000

     2   2 0 0     -4.623504      0.000000      1.462489
     2   1 1 0     -0.054416      0.000000     -0.178592
     2   1 0 1      0.438906      0.000000      0.997400
     2   0 2 0     -3.327528      0.000000      3.719870
     2   0 1 1      0.580239      0.000000      1.065945

 Total times  cpu:        0.2s     wall:        0.2s
