============================== echo of input deck ==============================
echo
memory 1000 mb
geometry noautosym noautoz
O -0.82054445 0.61636011 -1.6312343
H -0.26682713 1.17302621 -1.05309865
H -0.36885969 -0.24447946 -1.58195952
O 0.57630762 -1.69154092 -0.42866929
H 0.43417462 -2.64420081 -0.48595869
H 0.08911917 -1.3894609 0.38589939
end
basis spherical
 * library cc-pvdz
end
task scf gradient
================================================================================

 Output coordinates in angstroms (scale by  1.889725989 to convert to a.u.)

  No.       Tag          Charge          X              Y              Z
 ---- ---------------- ---------- -------------- -------------- --------------
    1 O                    8.0000    -0.71723007     1.20168818    -0.67051699
    2 H                    1.0000    -0.16351275     1.75835428    -0.09238134
    3 H                    1.0000    -0.26554531     0.34084861    -0.62124221
    4 O                    8.0000     0.67962200    -1.10621285     0.53204802
    5 H                    1.0000     0.53748900    -2.05887274     0.47475862
    6 H                    1.0000     0.19243355    -0.80413283     1.34661670

         Total SCF energy =   -152.057630054421

 Vector    2  Occ=2.000000D+00  E=-2.052913D+01

 Vector    3  Occ=2.000000D+00  E=-1.354856D+00

 Vector    4  Occ=2.000000D+00  E=-1.306579D+00

 Vector    5  Occ=2.000000D+00  E=-7.201002D-01

 Vector    6  Occ=2.000000D+00  E=-6.660643D-01

 Vector    7  Occ=2.000000D+00  E=-5.922707D-01

 Vector    8  Occ=2.000000D+00  E=-5.490871D-01

 Vector    9  Occ=2.000000D+00  E=-5.145197D-01

 Vector   10  Occ=2.000000D+00  E=-4.697325D-01

 Vector   11  Occ=0.000000D+00  E= 1.576539D-01

 Vector   12  Occ=0.000000D+00  E= 2.216587D-01

 Vector   13  Occ=0.000000D+00  E= 2.465526D-01

 Vector   14  Occ=0.000000D+00  E= 3.328739D-01

 Vector   15  Occ=0.000000D+00  E= 7.364647D-01

 Vector   16  Occ=0.000000D+00  E= 8.006561D-01

 Vector   17  Occ=0.000000D+00  E= 8.154331D-01

 Vector   18  Occ=0.000000D+00  E= 8.787842D-01

 Vector   19  Occ=0.000000D+00  E= 1.127803D+00

 Vector   20  Occ=0.000000D+00  E= 1.164929D+00

       Multipole analysis of the density wrt the origin
       ------------------------------------------------

     L   x y z        total         open         nuclear
     -   - - -        -----         ----         -------
     0   0 0 0     -0.000000      0.000000     20.000000

     1   1 0 0      0.311716      0.000000     -0.000000
     1   0 1 0     -0.813903      0.000000     -0.000000
     1   0 0 1      0.995488      0.000000      0.000000

     2   2 0 0    -12.207898      0.000000     29.402773
     2   1 1 0      2.028129      0.000000    -51.955185
     2   1 0 1     -1.322762      0.000000     26.548853
     2   0 2 0     -5.813037      0.000000    105.116653
     2   0 1 1      0.791447      0.000000    -48.527195

 Total times  cpu:        0.8s     wall:        0.9s
